VARIABLES="w (rad/s)"
"abs(F   1   1)" "angle(F   1   1)"
"abs(F   1   2)" "angle(F   1   2)"
"abs(F   1   3)" "angle(F   1   3)"
"abs(F   1   4)" "angle(F   1   4)"
"abs(F   1   5)" "angle(F   1   5)"
"abs(F   1   6)" "angle(F   1   6)"
"abs(F   2   1)" "angle(F   2   1)"
"abs(F   2   2)" "angle(F   2   2)"
"abs(F   2   3)" "angle(F   2   3)"
"abs(F   2   4)" "angle(F   2   4)"
"abs(F   2   5)" "angle(F   2   5)"
"abs(F   2   6)" "angle(F   2   6)"
Zone t="Diffraction force - beta =   0.000 deg",I=   100,F=POINT
  0.2000000E-01  0.1438874E+04 -0.1551255E+01  0.3306273E-03 -0.1060199E+01  0.1174885E+04 -0.2740956E+01  0.7254679E-03  0.1855427E+01  0.1478737E+05 -0.1575080E+01  0.1621266E-09  0.1516776E+01  0.2828548E+05 -0.1571894E+01  0.3021816E-02 -0.1208910E+01  0.3271189E+02  0.1619602E+01  0.6595191E-01 -0.3368213E-01  0.8062056E+06 -0.1574173E+01  0.4206952E-09  0.2023325E+01
  0.4000000E-01  0.2886592E+04 -0.1531515E+01  0.1722417E-03  0.2444584E+01  0.4420808E+04 -0.2895351E+01  0.5320814E-02  0.4118729E+00  0.3022914E+05 -0.1579274E+01  0.2547900E-09 -0.1538665E+01  0.5670812E+05 -0.1573044E+01  0.8713153E-02  0.7633441E+00  0.5798516E+02  0.1541142E+01  0.2672777E+00  0.2727706E+01  0.1628808E+07 -0.1577650E+01  0.4476967E-08  0.1505539E+01
  0.6000000E-01  0.4379604E+04 -0.1512649E+01  0.1190794E-02  0.2182638E+01  0.9766790E+04 -0.2959903E+01  0.5903659E-02  0.2233658E+01  0.4593885E+05 -0.1583113E+01  0.9082205E-10  0.9994587E+00  0.8508836E+05 -0.1574170E+01  0.1117911E-01  0.2900287E+01  0.8132799E+02  0.1367263E+01  0.4006014E+00 -0.2595164E+01  0.2459565E+07 -0.1581024E+01  0.1252288E-07 -0.1558450E+01
  0.8000000E-01  0.5931505E+04 -0.1494138E+01  0.1123565E-02 -0.1181522E+01  0.1725651E+05 -0.2987736E+01  0.4018708E-02  0.2202429E+01  0.6195120E+05 -0.1586863E+01  0.4591390E-09 -0.1758091E+01  0.1134805E+06 -0.1575288E+01  0.2373347E-01  0.2235465E+01  0.1096731E+03  0.1047233E+01  0.1621955E+00 -0.1977944E+01  0.3308332E+07 -0.1584314E+01  0.1912734E-08  0.1123311E+01
  0.9999999E-01  0.7574496E+04 -0.1477095E+01  0.2157409E-02  0.3103457E+01  0.2689182E+05 -0.3004778E+01  0.6940744E-02  0.3127620E+01  0.7857715E+05 -0.1590672E+01  0.1390070E-09 -0.3036716E+01  0.1419332E+06 -0.1576421E+01  0.1616829E-01  0.8732364E+00  0.1718392E+03  0.7084717E+00  0.4328339E+00 -0.3087353E+01  0.4184323E+07 -0.1587564E+01  0.1400633E-07  0.1819051E+01
  0.1200000E+00  0.9346041E+04 -0.1461522E+01  0.2110826E-02 -0.2726052E+01  0.3878923E+05 -0.3013585E+01  0.3227299E-01  0.5308976E-01  0.9626518E+05 -0.1593908E+01  0.1372825E-09  0.1012197E+01  0.1704384E+06 -0.1577519E+01  0.1527437E-01 -0.1181307E+00  0.2918039E+03  0.4337969E+00  0.5383601E+00 -0.3953907E+00  0.5091290E+07 -0.1590613E+01  0.4179032E-07  0.1447478E+01
  0.1400000E+00  0.1125760E+05 -0.1447791E+01  0.1126197E-02 -0.2484838E+01  0.5296635E+05 -0.3018229E+01  0.6525200E-01 -0.1399369E+00  0.1149436E+06 -0.1597222E+01  0.6695463E-09 -0.8315193E+00  0.1991642E+06 -0.1578566E+01  0.4505442E-01  0.3212923E+00  0.4966249E+03  0.2789549E+00  0.3893262E+01  0.8479662E-01  0.6047970E+07 -0.1593388E+01  0.5239195E-08 -0.1556908E+01
  0.1600000E+00  0.1334694E+05 -0.1434389E+01  0.5218401E-02  0.2665052E+01  0.6950236E+05 -0.3017181E+01  0.1571277E+00 -0.1766715E+00  0.1351044E+06 -0.1599698E+01  0.5468113E-09 -0.2010639E+01  0.2281291E+06 -0.1579593E+01  0.4239716E-01  0.4064902E+00  0.8194021E+03  0.1920585E+00  0.6872783E+00 -0.2214110E+01  0.7059424E+07 -0.1595990E+01  0.4493839E-07  0.1543592E+01
  0.1800000E+00  0.1575623E+05 -0.1426782E+01  0.2766287E-02  0.2541733E+01  0.8852334E+05 -0.3013903E+01  0.2375343E-01  0.2871551E+01  0.1572140E+06 -0.1602134E+01  0.8466414E-09 -0.1996001E+01  0.2574548E+06 -0.1580510E+01  0.7742494E-01  0.1444371E+01  0.1309323E+04  0.1445577E+00  0.9992262E+00  0.1852117E+01  0.8139694E+07 -0.1598166E+01  0.3772010E-07 -0.1306355E+01
  0.2000000E+00  0.1838503E+05 -0.1417075E+01  0.8167814E-02 -0.2832904E+01  0.1100096E+06 -0.3007652E+01  0.2909361E-01 -0.2892333E+01  0.1813503E+06 -0.1604210E+01  0.1957760E-09  0.2303612E+01  0.2872681E+06 -0.1581377E+01  0.7695296E-01 -0.3627243E+00  0.1992940E+04  0.1372795E+00  0.1596979E+01  0.1373712E+01  0.9304995E+07 -0.1600097E+01  0.9566659E-07 -0.1527507E+01
  0.2200000E+00  0.2142006E+05 -0.1412189E+01  0.5534008E-02  0.1779007E+01  0.1340682E+06 -0.2996043E+01  0.6744535E-01  0.1021983E-01  0.2080455E+06 -0.1604959E+01  0.3794675E-09  0.5667292E+00  0.3175388E+06 -0.1582215E+01  0.1256627E+00  0.3087794E+01  0.2983652E+04  0.1357987E+00  0.3134503E+01 -0.1942071E+01  0.1056072E+08 -0.1601881E+01  0.1908924E-07  0.7988743E+00
  0.2400000E+00  0.2482683E+05 -0.1408436E+01  0.8723604E-02 -0.2584036E+01  0.1605467E+06 -0.2983659E+01  0.6823135E-01 -0.3014612E-01  0.2373051E+06 -0.1606299E+01  0.1251803E-08  0.3118341E+01  0.3481609E+06 -0.1582841E+01  0.1233140E+00 -0.2437059E+01  0.4252633E+04  0.1535019E+00  0.7462718E+01  0.1009833E+01  0.1191187E+08 -0.1603081E+01  0.4067167E-07 -0.7319907E+00
  0.2600000E+00  0.2882606E+05 -0.1405626E+01  0.1632659E-01  0.2997399E+01  0.1894124E+06 -0.2968616E+01  0.7175229E-01  0.1577101E+00  0.2697333E+06 -0.1606841E+01  0.1677199E-08  0.2466852E+01  0.3789224E+06 -0.1583373E+01  0.1987856E+00  0.9754964E+00  0.5953531E+04  0.1718639E+00  0.8159969E+01 -0.2180848E+01  0.1336258E+08 -0.1604061E+01  0.3719785E-07  0.1873495E+01
  0.2800000E+00  0.3292239E+05 -0.1402856E+01  0.2181296E-02 -0.2708941E+01  0.2203482E+06 -0.2950687E+01  0.2181173E+00 -0.3168830E-02  0.3041685E+06 -0.1605942E+01  0.1164153E-08 -0.2214298E+01  0.4090967E+06 -0.1583712E+01  0.1338815E+00  0.2052936E+01  0.7979318E+04  0.1985803E+00  0.9219628E+01 -0.7388761E+00  0.1488036E+08 -0.1604639E+01  0.6612650E-07 -0.1289837E+01
  0.3000000E+00  0.3777900E+05 -0.1403899E+01  0.1210764E-01  0.1982915E+00  0.2534570E+06 -0.2932249E+01  0.1729356E+00 -0.2669991E+01  0.3413053E+06 -0.1605127E+01  0.1065773E-08 -0.2181522E+01  0.4380670E+06 -0.1583984E+01  0.2235011E+00  0.8642198E+00  0.1045696E+05  0.2239492E+00  0.5879005E+01 -0.2241838E+01  0.1644420E+08 -0.1605178E+01  0.7654418E-07  0.9636525E+00
  0.3200000E+00  0.4306448E+05 -0.1402731E+01  0.2465139E-02 -0.1803859E+01  0.2883643E+06 -0.2915280E+01  0.1800685E+00 -0.9666613E+00  0.3796716E+06 -0.1605018E+01  0.1648418E-08  0.7354398E+00  0.4650632E+06 -0.1584065E+01  0.2203340E+00  0.2857545E+01  0.1324451E+05  0.2516133E+00  0.1134770E+02 -0.2749930E+00  0.1801743E+08 -0.1605404E+01  0.4498990E-07 -0.1671559E+01
  0.3400000E+00  0.4850028E+05 -0.1400359E+01  0.3207474E-01 -0.1504540E-01  0.3249622E+06 -0.2896518E+01  0.2311808E+00 -0.2660128E+00  0.4195866E+06 -0.1602355E+01  0.3190820E-08  0.6690429E+00  0.4896552E+06 -0.1584044E+01  0.4153183E+00  0.2461352E+01  0.1636141E+05  0.2795898E+00  0.1018068E+02 -0.6905819E+00  0.1958487E+08 -0.1605537E+01  0.1632485E-06 -0.1578730E+01
  0.3600000E+00  0.5479504E+05 -0.1400640E+01  0.5218876E-02  0.2814930E+01  0.3636090E+06 -0.2877552E+01  0.3011653E+00 -0.5798513E+00  0.4597530E+06 -0.1599912E+01  0.1328615E-08  0.1067953E+01  0.5110822E+06 -0.1583950E+01  0.2687607E+00 -0.2939276E+01  0.1978298E+05  0.3051387E+00  0.6174847E+01  0.1442379E+01  0.2109003E+08 -0.1605676E+01  0.1390942E-06 -0.1669455E+01
  0.3800000E+00  0.6105917E+05 -0.1399853E+01  0.6552003E-02 -0.8715481E+00  0.4035762E+06 -0.2859931E+01  0.7115562E+00  0.3040087E+01  0.4994609E+06 -0.1597325E+01  0.2968020E-08 -0.1124691E+01  0.5293722E+06 -0.1583467E+01  0.3197475E+00 -0.1682446E+01  0.2328743E+05  0.3306166E+00  0.3148503E+02 -0.1705053E+01  0.2253321E+08 -0.1605158E+01  0.1594162E-06  0.1535052E+01
  0.4000000E+00  0.6786623E+05 -0.1398993E+01  0.3376484E-01  0.1944155E+00  0.4450306E+06 -0.2842482E+01  0.3211971E+00 -0.9054897E+00  0.5398659E+06 -0.1594520E+01  0.4049514E-08 -0.1249046E+01  0.5446126E+06 -0.1583090E+01  0.2143744E+00 -0.9212893E+00  0.2710675E+05  0.3575542E+00  0.3028649E+02 -0.1237043E+01  0.2391162E+08 -0.1605002E+01  0.3899345E-07 -0.6408141E+00
  0.4200000E+00  0.7535280E+05 -0.1395261E+01  0.4911562E-02 -0.2550036E+01  0.4877736E+06 -0.2825301E+01  0.5456200E+00 -0.2441039E+01  0.5787795E+06 -0.1590649E+01  0.1416254E-08  0.2976444E+01  0.5561138E+06 -0.1582548E+01  0.2601835E+00  0.1688748E+01  0.3102012E+05  0.3841420E+00  0.1940675E+02  0.2903551E+01  0.2515037E+08 -0.1604713E+01  0.3092862E-07  0.2873989E+01
  0.4400000E+00  0.8244102E+05 -0.1392570E+01  0.6840564E-02  0.3067605E+00  0.5315609E+06 -0.2807363E+01  0.3027362E+00 -0.6256104E+00  0.6160370E+06 -0.1584615E+01  0.6700711E-08  0.1710236E+01  0.5648353E+06 -0.1581514E+01  0.3174325E+00 -0.1952625E+01  0.3487911E+05  0.4080254E+00  0.1954461E+02  0.2705245E+00  0.2631022E+08 -0.1603622E+01  0.7704647E-07 -0.1796758E+01
  0.4600000E+00  0.9082800E+05 -0.1391155E+01  0.5335800E-01 -0.6384181E+00  0.5765914E+06 -0.2789497E+01  0.1258120E-01 -0.4829122E+00  0.6522260E+06 -0.1578472E+01  0.9092327E-09 -0.2265535E+01  0.5702198E+06 -0.1580637E+01  0.3960100E+00 -0.1228752E+01  0.3893500E+05  0.4345164E+00  0.3129435E+02  0.2487991E+01  0.2731843E+08 -0.1603019E+01  0.1753216E-06  0.1516113E+01
  0.4800000E+00  0.9956402E+05 -0.1388751E+01  0.1783976E-01 -0.4580533E+00  0.6221484E+06 -0.2773091E+01  0.7330676E+00  0.3146972E+00  0.6854693E+06 -0.1572158E+01  0.5564847E-08 -0.2489723E+01  0.5725015E+06 -0.1579479E+01  0.1777499E+00 -0.1484332E+00  0.4294558E+05  0.4596913E+00  0.2906965E+02  0.8002298E+00  0.2817130E+08 -0.1602092E+01  0.1423803E-06 -0.1562927E+01
  0.5000000E+00  0.1082488E+06 -0.1384588E+01  0.5768542E-01  0.2898699E+01  0.6681107E+06 -0.2757442E+01  0.1928818E+01 -0.3117673E+01  0.7143222E+06 -0.1564873E+01  0.2542549E-08 -0.2863293E+01  0.5721269E+06 -0.1577912E+01  0.3632842E+00 -0.2672518E+01  0.4672981E+05  0.4836897E+00  0.1685748E+02 -0.1669108E+01  0.2888209E+08 -0.1600623E+01  0.1841840E-06 -0.1552900E+01
  0.5200000E+00  0.1163843E+06 -0.1379110E+01  0.4349711E-01  0.2783823E+01  0.7144148E+06 -0.2742233E+01  0.5479436E+00  0.1664878E+00  0.7430253E+06 -0.1555037E+01  0.5430497E-08 -0.5404195E+00  0.5704143E+06 -0.1576076E+01  0.2592345E+00  0.1968808E+01  0.5072357E+05  0.5069674E+00  0.3094654E+02 -0.2676066E+01  0.2954617E+08 -0.1598789E+01  0.1139679E-06 -0.1549280E+01
  0.5400000E+00  0.1266231E+06 -0.1373930E+01  0.4605269E-01  0.2879928E+01  0.7613689E+06 -0.2726109E+01  0.5377761E+00  0.1128729E+01  0.7656417E+06 -0.1543604E+01  0.7439658E-08  0.1219352E+01  0.5647324E+06 -0.1574538E+01  0.1479289E+00  0.1997338E+01  0.5454462E+05  0.5282689E+00  0.3722243E+02 -0.2152959E+01  0.2991231E+08 -0.1597723E+01  0.1573108E-06 -0.1602160E+01
  0.5599999E+00  0.1370484E+06 -0.1369294E+01  0.4801825E-01 -0.2854036E+00  0.8083193E+06 -0.2710609E+01  0.8243405E+00  0.1155187E+01  0.7818032E+06 -0.1530744E+01  0.2187245E-08 -0.2701750E+01  0.5566060E+06 -0.1572609E+01  0.1899522E+00  0.2084126E+01  0.5825625E+05  0.5509680E+00  0.3000463E+02 -0.3029867E+01  0.3009505E+08 -0.1596155E+01  0.3140394E-07  0.1768555E+01
  0.5800000E+00  0.1472982E+06 -0.1364004E+01  0.4341318E-01 -0.2576208E+01  0.8549096E+06 -0.2695862E+01  0.1827389E+00 -0.1183343E+01  0.7930285E+06 -0.1515571E+01  0.5466564E-08 -0.1107149E+01  0.5468766E+06 -0.1570005E+01  0.2396505E+00 -0.1090684E+01  0.6162104E+05  0.5710145E+00  0.2536859E+02 -0.1239349E+01  0.3014956E+08 -0.1593652E+01  0.5064827E-07  0.1567205E+01
  0.6000000E+00  0.1568210E+06 -0.1358841E+01  0.4993411E-01 -0.8638604E+00  0.9010188E+06 -0.2682236E+01  0.4125257E+00  0.1173020E+01  0.8005821E+06 -0.1498035E+01  0.9599853E-09  0.2896614E+01  0.5363476E+06 -0.1567082E+01  0.1814755E+00 -0.1936199E+01  0.6528675E+05  0.5910968E+00  0.1630607E+02  0.2417074E+01  0.3013335E+08 -0.1590734E+01  0.1653686E-06 -0.1672343E+01
  0.6200000E+00  0.1679996E+06 -0.1352007E+01  0.5336906E-01 -0.1679370E+01  0.9468119E+06 -0.2668911E+01  0.6660314E+00 -0.5849081E+00  0.7984352E+06 -0.1479399E+01  0.4231180E-08 -0.1708802E+01  0.5226486E+06 -0.1565051E+01  0.6897793E+00 -0.2399256E+01  0.6860972E+05  0.6088116E+00  0.7901114E+02  0.1960167E+01  0.2983046E+08 -0.1589426E+01  0.2290233E-07  0.1375768E+01
  0.6400000E+00  0.1793059E+06 -0.1344701E+01  0.2304654E-01  0.1536692E+01  0.9916864E+06 -0.2656713E+01  0.8686662E+00 -0.1689248E+01  0.7870304E+06 -0.1457066E+01  0.8159875E-08  0.8358603E+00  0.5068942E+06 -0.1562718E+01  0.2948089E+00  0.1253261E+01  0.7188767E+05  0.6273401E+00  0.2272277E+02  0.2366757E+01  0.2933001E+08 -0.1587735E+01  0.3279818E-07 -0.2473642E+01
  0.6600000E+00  0.1912891E+06 -0.1336088E+01  0.6925750E-01  0.1465039E+01  0.1035965E+07 -0.2644729E+01  0.9472960E+00 -0.1753352E+01  0.7661855E+06 -0.1430131E+01  0.1407856E-07 -0.1695151E+01  0.4889062E+06 -0.1560326E+01  0.5748054E+00 -0.1585480E+01  0.7481838E+05  0.6427408E+00  0.6722637E+02 -0.2626212E+01  0.2861095E+08 -0.1586081E+01  0.1115918E-06  0.1623830E+01
  0.6800000E+00  0.1996653E+06 -0.1327271E+01  0.5849900E-01 -0.2951870E+01  0.1079530E+07 -0.2633002E+01  0.1144843E+01 -0.2237838E-01  0.7435710E+06 -0.1396435E+01  0.7162145E-08 -0.3011189E+01  0.4725696E+06 -0.1556987E+01  0.1965347E+00 -0.2667413E+01  0.7782924E+05  0.6567553E+00  0.6441355E+02  0.2471378E+01  0.2800659E+08 -0.1582877E+01  0.3082951E-07  0.1617779E+01
  0.7000000E+00  0.2093208E+06 -0.1319113E+01  0.1168776E+00  0.2096344E+00  0.1122417E+07 -0.2621585E+01  0.1848126E+01  0.2459684E+01  0.7102994E+06 -0.1357675E+01  0.3978612E-08  0.1929567E+01  0.4534200E+06 -0.1555111E+01  0.1686021E+00  0.8420901E+00  0.8077907E+05  0.6720737E+00  0.3202659E+02  0.2395724E+01  0.2712538E+08 -0.1581923E+01  0.4182506E-07 -0.1077114E+01
  0.7200000E+00  0.2230321E+06 -0.1314398E+01  0.8202141E-01 -0.2059947E+01  0.1164080E+07 -0.2610609E+01  0.1209014E+01  0.4281913E+00  0.6587029E+06 -0.1309159E+01  0.1253831E-08  0.3805064E+00  0.4285586E+06 -0.1554089E+01  0.1273115E+01 -0.1558398E+01  0.8338638E+05  0.6842235E+00  0.2973545E+02  0.2339257E+01  0.2570899E+08 -0.1582656E+01  0.2245411E-06  0.1589138E+01
  0.7399999E+00  0.2366225E+06 -0.1310030E+01  0.5371345E-01  0.2859469E+01  0.1203964E+07 -0.2600656E+01  0.1520731E+01  0.3061807E-01  0.5952671E+06 -0.1245950E+01  0.1432666E-07  0.8947864E+00  0.4017547E+06 -0.1553393E+01  0.3229623E+00 -0.2866055E+01  0.8597962E+05  0.6973289E+00  0.6997022E+02  0.2225445E+01  0.2408764E+08 -0.1584000E+01  0.6525818E-07  0.1389178E+01
  0.7600000E+00  0.2484672E+06 -0.1304783E+01  0.1670127E-01 -0.2867748E+01  0.1242180E+07 -0.2591277E+01  0.3546250E+00 -0.2968303E+01  0.5214883E+06 -0.1159454E+01  0.1426978E-07  0.1365401E+01  0.3748343E+06 -0.1552726E+01  0.8220241E+00 -0.1279930E+01  0.8822992E+05  0.7074764E+00  0.9244035E+02  0.2693679E+01  0.2241854E+08 -0.1585461E+01  0.6064930E-07  0.2133525E+01
  0.7800000E+00  0.2550587E+06 -0.1297719E+01  0.7130680E-01  0.1730088E+01  0.1278482E+07 -0.2582901E+01  0.2139153E+01  0.2036215E+01  0.4475433E+06 -0.1039261E+01  0.3292723E-08  0.2356194E+01  0.3513210E+06 -0.1551477E+01  0.2353326E+00  0.2948044E+01  0.9048555E+05  0.7169400E+00  0.6357202E+02  0.1044609E+01  0.2101370E+08 -0.1585664E+01  0.6792533E-07  0.1312126E+01
  0.8000000E+00  0.2395647E+06 -0.1253444E+01  0.5065025E-01 -0.6351863E+00  0.1312705E+07 -0.2577583E+01  0.8990073E+00 -0.8158782E+00  0.4050514E+06 -0.9353561E+00  0.9041507E-08 -0.2934096E+01  0.3520150E+06 -0.1560337E+01  0.1093127E+00 -0.2954607E+01  0.9257777E+05  0.7241957E+00  0.1531726E+00 -0.1592295E+01  0.2170661E+08 -0.1596886E+01  0.6376753E-07  0.2014963E+01
  0.8199999E+00  0.2491968E+06 -0.1247180E+01  0.1379537E+00 -0.2097083E+01  0.1346224E+07 -0.2570342E+01  0.7425997E+00 -0.9682132E+00  0.3216601E+06 -0.6852086E+00  0.5355105E-08  0.0000000E+00  0.3227122E+06 -0.1569479E+01  0.3766759E+00  0.1533954E+01  0.9445628E+05  0.7311239E+00  0.4620811E+02 -0.8642769E+00  0.1973928E+08 -0.1612072E+01  0.2503558E-07 -0.2033372E+01
  0.8400000E+00  0.2600088E+06 -0.1246254E+01  0.4654019E-01  0.1596912E+00  0.1378062E+07 -0.2563818E+01  0.1325096E+01 -0.1721360E+01  0.2620901E+06 -0.2508344E+00  0.1926313E-07 -0.2034444E+01  0.2901714E+06 -0.1581157E+01  0.1590231E+00  0.9728607E+00  0.9633048E+05  0.7384071E+00  0.1039228E+03  0.2357667E+01  0.1746039E+08 -0.1631973E+01  0.1412803E-06  0.1626084E+01
  0.8600000E+00  0.2692992E+06 -0.1247278E+01  0.2621793E+00  0.1372359E+01  0.1408011E+07 -0.2557297E+01  0.2494227E+01  0.2955100E+01  0.2681112E+06  0.3335429E+00  0.1212733E-07  0.1513168E+01  0.2567165E+06 -0.1597692E+01  0.2097555E+00  0.2097099E+01  0.9792893E+05  0.7435284E+00  0.3534161E+02 -0.2407505E+01  0.1507643E+08 -0.1660634E+01  0.1176723E-06 -0.1628859E+01
  0.8800000E+00  0.2773476E+06 -0.1250498E+01  0.5209413E-01  0.2158616E+01  0.1436243E+07 -0.2551110E+01  0.1089525E+01  0.2399394E+00  0.3542566E+06  0.7999473E+00  0.4197414E-08  0.2553590E+01  0.2228386E+06 -0.1620314E+01  0.6943264E+00 -0.3030175E+01  0.9934365E+05  0.7470160E+00  0.2740869E+02  0.7610310E+00  0.1263483E+08 -0.1701785E+01  0.7605878E-07 -0.1684448E+01
  0.9000000E+00  0.2805564E+06 -0.1255164E+01  0.1882052E+00 -0.1506845E+01  0.1461916E+07 -0.2545742E+01  0.1053493E+01 -0.6589255E+00  0.4862197E+06  0.1064551E+01  0.1075063E-07 -0.1878849E+01  0.1925625E+06 -0.1646358E+01  0.1969092E+00 -0.1895283E+01  0.1007335E+06  0.7509248E+00  0.6389965E+02 -0.1908278E+01  0.1048924E+08 -0.1751895E+01  0.1405398E-06  0.1748636E+01
  0.9200000E+00  0.2826658E+06 -0.1262927E+01  0.1084233E+00  0.1253530E+01  0.1485423E+07 -0.2540745E+01  0.1655473E+01 -0.2198880E+01  0.6431230E+06  0.1225963E+01  0.1152923E-07  0.2327631E+01  0.1626251E+06 -0.1684888E+01  0.3758102E+00  0.7884790E+00  0.1020971E+06  0.7558513E+00  0.5241526E+02  0.1013656E+01  0.8371486E+07 -0.1832191E+01  0.1654492E-07  0.1651582E+01
  0.9400000E+00  0.2922858E+06 -0.1277882E+01  0.1358936E+00 -0.2110291E+01  0.1506631E+07 -0.2536127E+01  0.2957343E+01  0.2686326E+01  0.8323132E+06  0.1345295E+01  0.2475024E-08 -0.8519663E+00  0.1240347E+06 -0.1774895E+01  0.1320746E+01 -0.1554308E+01  0.1030434E+06  0.7572111E+00  0.2108496E+02  0.8118877E+00  0.5647930E+07 -0.2061225E+01  0.1559885E-07  0.1253692E+01
  0.9600000E+00  0.2989160E+06 -0.1294762E+01  0.6998504E-01 -0.1964866E+01  0.1525544E+07 -0.2532164E+01  0.1290789E+01 -0.1361807E+01  0.1034472E+07  0.1428758E+01  0.7957223E-08 -0.1212026E+01  0.8943856E+05 -0.1932440E+01  0.4298629E+00  0.6147646E-01  0.1037796E+06  0.7568430E+00  0.3987210E+02  0.1523757E+01  0.3754954E+07 -0.2563112E+01  0.5630094E-07  0.1386568E+01
  0.9800000E+00  0.3077392E+06 -0.1320029E+01  0.1457224E+00 -0.2789440E+01  0.1542029E+07 -0.2528529E+01  0.1874879E+01 -0.2030308E+01  0.1256141E+07  0.1492925E+01  0.3026798E-08  0.1965587E+01  0.5644132E+05 -0.2306689E+01  0.3091961E+00 -0.7898185E+00  0.1046417E+06  0.7588178E+00  0.3977037E+02 -0.2969242E+01  0.3810547E+07  0.2806940E+01  0.1658865E-07  0.2019487E+01
  0.1000000E+01  0.3160843E+06 -0.1350246E+01  0.8999526E-01  0.2379066E+01  0.1555969E+07 -0.2525303E+01  0.1673927E+01  0.3056988E+01  0.1491985E+07  0.1543798E+01  0.1860461E-07  0.2365044E+01  0.4367223E+05  0.3124381E+01  0.5449873E+00 -0.1541052E+01  0.1050994E+06  0.7573567E+00  0.5342694E+02 -0.2508073E+01  0.6136921E+07  0.2282880E+01  0.7612469E-07 -0.1496007E+01
  0.1020000E+01  0.3196458E+06 -0.1383513E+01  0.2162899E-01  0.1878268E+01  0.1567378E+07 -0.2522609E+01  0.1512546E+01  0.1271834E+01  0.1729706E+07  0.1585095E+01  0.3218205E-07 -0.1269638E+01  0.6201920E+05  0.2466625E+01  0.6375460E+00  0.2502056E+01  0.1054008E+06  0.7548282E+00  0.6408113E+02 -0.6462736E+00  0.8800197E+07  0.2085441E+01  0.4793466E-07 -0.1829710E+01
  0.1040000E+01  0.3119176E+06 -0.1418159E+01  0.1302361E+00 -0.1338548E+01  0.1575991E+07 -0.2520784E+01  0.3017835E+01  0.1490306E+01  0.1956956E+07  0.1619667E+01  0.2527580E-07  0.1672298E+01  0.8383545E+05  0.2245459E+01  0.5551973E+00  0.3126921E+00  0.1057573E+06  0.7534005E+00  0.8524822E+02  0.2199229E+01  0.1073029E+08  0.2011895E+01  0.3854287E-07  0.1111370E+01
  0.1060000E+01  0.3034891E+06 -0.1458066E+01  0.1796155E-01  0.2583871E+01  0.1581966E+07 -0.2519426E+01  0.2348369E+01  0.1463657E+01  0.2188339E+07  0.1651719E+01  0.3066389E-07  0.1808409E+01  0.1081264E+06  0.2128351E+01  0.3575716E+00  0.3131185E+01  0.1060020E+06  0.7519279E+00  0.1606858E+03  0.1658058E+01  0.1271356E+08  0.1967181E+01  0.1062268E-06 -0.1607723E+01
  0.1080000E+01  0.3072168E+06 -0.1506170E+01  0.7098574E-01  0.2907745E+01  0.1585520E+07 -0.2518157E+01  0.1763513E+01 -0.2884831E+00  0.2442640E+07  0.1681757E+01  0.1071021E-07 -0.3141592E+01  0.1452991E+06  0.2023512E+01  0.6304773E+00  0.4839782E+00  0.1058966E+06  0.7469487E+00  0.3650661E+02  0.1439843E+01  0.1581890E+08  0.1916838E+01  0.7168189E-07  0.1559453E+01
  0.1100000E+01  0.3239013E+06 -0.1567580E+01  0.5870894E-01  0.1651585E+01  0.1586502E+07 -0.2517114E+01  0.2954537E+01  0.4795035E-01  0.2724122E+07  0.1706943E+01  0.2374416E-07 -0.1768192E+01  0.1942945E+06  0.1921909E+01  0.6733235E-01  0.4838989E+00  0.1055212E+06  0.7394745E+00  0.2004761E+02 -0.1852732E+01  0.1996905E+08  0.1852383E+01  0.7141827E-07 -0.1538393E+01
  0.1120000E+01  0.3494297E+06 -0.1636255E+01  0.5822406E-01  0.1492226E+01  0.1584482E+07 -0.2516818E+01  0.5894451E+00 -0.2689505E+01  0.3019199E+07  0.1727103E+01  0.3364383E-07  0.1653938E+01  0.2497685E+06  0.1838464E+01  0.5575781E+00  0.6838205E+00  0.1053162E+06  0.7364105E+00  0.3595722E+02 -0.2561505E+01  0.2467957E+08  0.1790581E+01  0.2366971E-06 -0.1602548E+01
  0.1140000E+01  0.3853567E+06 -0.1706468E+01  0.4990307E-01 -0.6956583E+00  0.1579739E+07 -0.2516061E+01  0.3431081E+01  0.2272458E+01  0.3322480E+07  0.1742870E+01  0.1126284E-07  0.1446441E+01  0.3126380E+06  0.1766553E+01  0.5725288E+00  0.1540541E+01  0.1048487E+06  0.7316565E+00  0.8355393E+02 -0.1701817E+01  0.3003928E+08  0.1731975E+01  0.4206642E-07  0.1185063E+01
  0.1160000E+01  0.4406777E+06 -0.1783121E+01  0.6931920E-01  0.8233861E+00  0.1573022E+07 -0.2516014E+01  0.7624935E+00 -0.1894310E+00  0.3646818E+07  0.1752320E+01  0.4548250E-07 -0.1756144E+01  0.3899778E+06  0.1685832E+01  0.6242710E+00 -0.1912590E+01  0.1040656E+06  0.7218829E+00  0.3564003E+02  0.1982394E+01  0.3669760E+08  0.1661300E+01  0.1231200E-06  0.1648638E+01
  0.1180000E+01  0.4781779E+06 -0.1853758E+01  0.1711648E+00 -0.1238740E+00  0.1562649E+07 -0.2516283E+01  0.2417446E+01  0.3484267E+00  0.3931846E+07  0.1763045E+01  0.1919971E-08 -0.1815775E+01  0.4465247E+06  0.1637594E+01  0.6797162E+00 -0.1839385E+00  0.1031945E+06  0.7136260E+00  0.2596782E+02 -0.1102815E+01  0.4150392E+08  0.1616922E+01  0.1542884E-06 -0.1746568E+01
  0.1200000E+01  0.4880842E+06 -0.1930079E+01  0.6162852E-01  0.2929047E+01  0.1548612E+07 -0.2518192E+01  0.2927117E+01  0.1375840E+01  0.4166358E+07  0.1776307E+01  0.1493024E-07 -0.1633215E+01  0.4710840E+06  0.1607249E+01  0.7274587E+00 -0.2151154E+01  0.1024145E+06  0.7071639E+00  0.7650360E+02  0.1783928E+01  0.4350605E+08  0.1587378E+01  0.2821443E-07 -0.1707186E+01
  0.1220000E+01  0.5048645E+06 -0.2002645E+01  0.4314532E-01 -0.3063709E+01  0.1531892E+07 -0.2520233E+01  0.3833077E+00 -0.1895972E+01  0.4402888E+07  0.1788720E+01  0.2067872E-07  0.1435269E+01  0.5006165E+06  0.1577419E+01  0.6846213E+00 -0.2211962E+01  0.1014695E+06  0.7007211E+00  0.1007173E+03  0.2017673E+01  0.4596186E+08  0.1558381E+01  0.1710346E-06 -0.1535895E+01
  0.1240000E+01  0.5575096E+06 -0.2054328E+01  0.4726009E-01  0.2573650E+01  0.1512567E+07 -0.2522484E+01  0.7426463E+00  0.2100324E+01  0.4685412E+07  0.1796936E+01  0.7916242E-08  0.2651635E+01  0.5680379E+06  0.1539842E+01  0.4092331E+00  0.1571096E+01  0.1002926E+06  0.6900647E+00  0.1497120E+03  0.2350238E+01  0.5175729E+08  0.1522795E+01  0.1658801E-07  0.1561996E+01
  0.1260000E+01  0.6375592E+06 -0.2093071E+01  0.1338025E-01  0.9131539E+00  0.1490660E+07 -0.2525026E+01  0.1035580E+01  0.1928856E+01  0.4994073E+07  0.1800271E+01  0.3357931E-08 -0.5880026E+00  0.6601911E+06  0.1496579E+01  0.9541541E+00 -0.1721972E+01  0.9870973E+05  0.6739312E+00  0.4770349E+02 -0.2465183E+01  0.5974994E+08  0.1481635E+01  0.2447102E-06 -0.2043423E+01
  0.1280000E+01  0.7491284E+06 -0.2130336E+01  0.1497276E-01 -0.2820164E+01  0.1465546E+07 -0.2527662E+01  0.3674674E+01 -0.1877080E+00  0.5325539E+07  0.1796257E+01  0.4396000E-07 -0.2506566E+01  0.7774727E+06  0.1440270E+01  0.8296744E+00  0.6115500E+00  0.9708391E+05  0.6595299E+00  0.6380169E+02  0.1080523E+01  0.6998306E+08  0.1427626E+01  0.9938955E-07  0.2163049E+01
  0.1300000E+01  0.8835103E+06 -0.2172512E+01  0.1152091E+00  0.3132056E+01  0.1437557E+07 -0.2532932E+01  0.1912128E+01  0.2841416E+00  0.5657074E+07  0.1786705E+01  0.3684320E-07 -0.1852568E+01  0.9103676E+06  0.1375327E+01  0.9970288E+00 -0.1366810E+01  0.9559684E+05  0.6527290E+00  0.9906065E+02 -0.3077086E+01  0.8161383E+08  0.1364538E+01  0.2078477E-06 -0.2311646E+01
  0.1320000E+01  0.1101292E+07 -0.2206887E+01  0.1831281E+00 -0.1031806E+01  0.1408602E+07 -0.2535956E+01  0.3248167E+00  0.2043845E+01  0.6060568E+07  0.1762606E+01  0.1919970E-07 -0.1325818E+01  0.1124977E+07  0.1296547E+01  0.1313385E+00 -0.1974941E+01  0.9379515E+05  0.6391175E+00  0.6179965E+01 -0.1544223E+01  0.1004387E+09  0.1287876E+01  0.3176077E-06  0.1642339E+01
  0.1340000E+01  0.1435295E+07 -0.2239952E+01  0.1319364E+00 -0.2273175E+01  0.1378654E+07 -0.2540854E+01  0.1906846E+00 -0.1622513E+01  0.6564298E+07  0.1720898E+01  0.7087849E-07 -0.1518213E+01  0.1447916E+07  0.1207119E+01  0.8503642E+00  0.8409694E+00  0.9152916E+05  0.6150069E+00  0.1267184E+03 -0.7595611E+00  0.1288462E+09  0.1200547E+01  0.1824196E-06 -0.1767313E+01
  0.1360000E+01  0.1828453E+07 -0.2291912E+01  0.3336788E+00 -0.2044097E+01  0.1345598E+07 -0.2545499E+01  0.5058210E-01 -0.2305405E+01  0.7065271E+07  0.1667273E+01  0.9315088E-07  0.1550799E+01  0.1819797E+07  0.1111661E+01  0.3815829E+00 -0.4822869E+00  0.8928989E+05  0.5945979E+00  0.6142891E+02  0.1256069E+01  0.1615331E+09  0.1106468E+01  0.4027336E-06 -0.1610209E+00
  0.1380000E+01  0.2140798E+07 -0.2354233E+01  0.2117423E+00  0.1194144E+01  0.1301606E+07 -0.2556639E+01  0.1290420E+01 -0.2797547E+01  0.7407825E+07  0.1623249E+01  0.5686409E-07  0.1019141E+01  0.2093382E+07  0.1027636E+01  0.1171408E+01  0.6757119E+00  0.8775359E+05  0.5951735E+00  0.1253215E+03  0.2757563E+00  0.1856181E+09  0.1022995E+01  0.5835964E-06  0.1914179E+01
  0.1400000E+01  0.2551996E+07 -0.2423933E+01  0.5245128E+00  0.2575926E+01  0.1260756E+07 -0.2567915E+01  0.1892962E+00  0.2525663E+01  0.7788538E+07  0.1562824E+01  0.8511289E-07 -0.4048918E+00  0.2460960E+07  0.9295824E+00  0.5876139E+00  0.4789191E+00  0.8508934E+05  0.5808876E+00  0.4848789E+02  0.1180123E+01  0.2180422E+09  0.9259494E+00  0.2077210E-06 -0.2026706E+01
  0.1420000E+01  0.4115101E+07 -0.2453322E+01  0.2270222E+00 -0.3484494E+00  0.1210858E+07 -0.2582227E+01  0.1475513E+01  0.1038862E+01  0.9557797E+07  0.1393986E+01  0.2476688E-06  0.1206237E+00  0.4016970E+07  0.8314928E+00  0.8507227E+00  0.2405720E+01  0.8393454E+05  0.6059940E+00  0.2789074E+03 -0.1274151E+01  0.3550845E+09  0.8287860E+00  0.3377301E-06 -0.1500230E+01
  0.1440000E+01  0.4635004E+08 -0.2422811E+01  0.6077292E+01 -0.6909741E-02  0.1141140E+07 -0.2836329E+01  0.1063608E+01  0.8858743E+00  0.7080717E+08  0.8740516E+00  0.3141001E-05 -0.9880568E+00  0.4723694E+08  0.7506332E+00  0.1060965E+02 -0.2403609E+01  0.6305973E+05  0.9207498E+00  0.1191441E+04  0.3278110E+00  0.4161724E+10  0.7492688E+00  0.5219429E-05 -0.2701680E+01
  0.1460000E+01  0.4260385E+07  0.8379986E+00  0.5977117E+00 -0.3166085E-01  0.1135636E+07 -0.2551429E+01  0.6040544E+00 -0.1138650E+01  0.6858270E+07  0.3086724E+01  0.2748648E-06 -0.2568626E+01  0.4532562E+07 -0.2408873E+01  0.1042762E+01  0.1095879E+01  0.8391476E+05  0.5285639E+00  0.1105636E+03 -0.1659627E+01  0.3980606E+09 -0.2408824E+01  0.7347476E-06 -0.5872707E+00
  0.1480000E+01  0.2328429E+07  0.8426896E+00  0.9527312E-01 -0.2152758E+01  0.1085146E+07 -0.2569813E+01  0.1273835E+01 -0.3009794E+01  0.5848072E+07  0.2659374E+01  0.1663500E-06  0.2165010E+01  0.2584540E+07 -0.2510130E+01  0.2404351E+00 -0.7920247E+00  0.8007679E+05  0.5016682E+00  0.1554200E+02 -0.2777839E+01  0.2264936E+09 -0.2509211E+01  0.6933086E-06 -0.1342351E+01
  0.1500000E+01  0.1596976E+07  0.8525534E+00  0.5349289E-01 -0.5708078E-01  0.1036754E+07 -0.2579721E+01  0.2964766E+01 -0.2916146E+01  0.5853258E+07  0.2474737E+01  0.6149551E-07  0.1601090E+01  0.1860628E+07 -0.2607143E+01  0.2599553E+00 -0.1754402E+01  0.7746784E+05  0.4601316E+00  0.1108008E+02 -0.1846379E+01  0.1627909E+09 -0.2605481E+01  0.1629624E-06 -0.2640123E+01
  0.1520000E+01  0.1179704E+07  0.8540698E+00  0.1884308E+00 -0.1750563E+01  0.9827827E+06 -0.2592311E+01  0.1519051E+01 -0.1786184E+01  0.5983976E+07  0.2375286E+01  0.9223856E-07  0.1284175E+01  0.1476292E+07 -0.2712544E+01  0.1227975E+00  0.2413472E+01  0.7461916E+05  0.4456302E+00  0.1489015E+02 -0.6914564E-01  0.1289174E+09 -0.2710724E+01  0.8349275E-07  0.1507945E+01
  0.1540000E+01  0.8942320E+06  0.8448070E+00  0.1072450E+00  0.1596979E+01  0.9288483E+06 -0.2605030E+01  0.6760818E+00  0.4382197E+00  0.6120036E+07  0.2311476E+01  0.6790996E-07  0.4391127E+00  0.1232696E+07 -0.2833665E+01  0.6104596E-01 -0.8265684E+00  0.7213995E+05  0.4341739E+00  0.7161943E+00 -0.8911574E+00  0.1074614E+09 -0.2831771E+01  0.1380349E-06 -0.1330494E+01
  0.1560000E+01  0.7384841E+06  0.8276843E+00  0.3912260E-01 -0.1184496E+01  0.8736360E+06 -0.2618499E+01  0.1195029E+01 -0.4913288E+00  0.6218771E+07  0.2280290E+01  0.3915987E-07  0.4423742E+00  0.1117558E+07 -0.2928515E+01  0.3718756E+00  0.1970198E+00  0.6949059E+05  0.4164738E+00  0.6761318E+01 -0.2683472E+01  0.9731678E+08 -0.2926778E+01  0.1232517E-06  0.1052195E+01