VARIABLES="w (rad/s)"
"abs(F   1   1)" "angle(F   1   1)"
"abs(F   1   2)" "angle(F   1   2)"
"abs(F   1   3)" "angle(F   1   3)"
"abs(F   1   4)" "angle(F   1   4)"
"abs(F   1   5)" "angle(F   1   5)"
"abs(F   1   6)" "angle(F   1   6)"
"abs(F   2   1)" "angle(F   2   1)"
"abs(F   2   2)" "angle(F   2   2)"
"abs(F   2   3)" "angle(F   2   3)"
"abs(F   2   4)" "angle(F   2   4)"
"abs(F   2   5)" "angle(F   2   5)"
"abs(F   2   6)" "angle(F   2   6)"
Zone t="Diffraction force - beta =   0.000 deg",I=   100,F=POINT
  0.2000000E-01  0.4568383E+04 -0.1564626E+01  0.2676635E+00 -0.1094552E-02  0.3482775E+07 -0.1315100E-03  0.6565658E+01  0.3141479E+01  0.5391189E+05 -0.1581907E+01  0.9246698E-09  0.3074166E+01  0.5706720E+05 -0.1571448E+01  0.3849883E+01 -0.3140807E+01  0.3305897E+06  0.9881676E-04  0.9587539E+02 -0.3141588E+01  0.1609144E+07 -0.1572470E+01  0.8644564E-06 -0.3138124E+01
  0.4000000E-01  0.9184671E+04 -0.1558450E+01  0.4051413E+00  0.1590006E-03  0.3478483E+07 -0.3096849E-03  0.9950416E+01  0.7787217E-04  0.1089660E+06 -0.1578048E+01  0.2003272E-07 -0.1044230E-01  0.1142659E+06 -0.1571933E+01  0.8443766E+01  0.7505001E-03  0.3226701E+06  0.1795948E-03  0.4382776E+03  0.3141305E+01  0.3240926E+07 -0.1574279E+01  0.1537076E-06  0.9400643E-01
  0.6000000E-01  0.1392643E+05 -0.1552510E+01  0.4363994E+00  0.3139829E+01  0.3471358E+07 -0.5082127E-03  0.6819993E+01  0.6951562E-03  0.1652967E+06 -0.1577450E+01  0.2985144E-07 -0.1218690E-03  0.1714161E+06 -0.1572399E+01  0.3296654E+01  0.3140649E+01  0.3095570E+06  0.2572559E-03  0.3773780E+03 -0.5750224E-03  0.4893672E+07 -0.1575911E+01  0.1367788E-05 -0.2571201E-01
  0.8000000E-01  0.1885226E+05 -0.1546689E+01  0.4071809E+00 -0.2127688E-02  0.3461366E+07 -0.7637963E-03  0.1333826E+01  0.5299039E-03  0.2235026E+06 -0.1577652E+01  0.4118351E-08 -0.7914315E-01  0.2285808E+06 -0.1573013E+01  0.1800118E+02  0.1029070E-02  0.2913850E+06  0.3259074E-03  0.6129331E+03 -0.2963163E-03  0.6584475E+07 -0.1577569E+01  0.4310999E-06  0.2413508E-02
  0.9999999E-01  0.2404611E+05 -0.1541319E+01  0.3192334E+00  0.3141508E+01  0.3448508E+07 -0.1063277E-02  0.1279873E+01 -0.3140447E+01  0.2845348E+06 -0.1578156E+01  0.3385505E-07  0.9671186E-03  0.2858339E+06 -0.1573583E+01  0.2851354E+01  0.3137011E+01  0.2683561E+06  0.4165827E-03  0.3317505E+03 -0.6233453E-04  0.8330796E+07 -0.1579259E+01  0.2943485E-05  0.3118424E+01
  0.1200000E+00  0.2960576E+05 -0.1536366E+01  0.6260141E+00 -0.9653638E-03  0.3432668E+07 -0.1442181E-02  0.3232862E+01  0.5963254E-03  0.3495899E+06 -0.1578681E+01  0.1340929E-08 -0.2983580E+01  0.3432123E+06 -0.1574134E+01  0.1730092E+02 -0.3141446E+01  0.2407637E+06  0.5093396E-03  0.5502668E+02 -0.3137849E+01  0.1014598E+08 -0.1580750E+01  0.6160877E-07  0.1383813E+00
  0.1400000E+00  0.3561465E+05 -0.1532002E+01  0.1392832E+00 -0.3136658E+01  0.3413830E+07 -0.1908731E-02  0.9830809E+00 -0.1588814E-01  0.4194769E+06 -0.1579312E+01  0.1213435E-07 -0.3096006E+01  0.4009540E+06 -0.1574687E+01  0.1185703E+02  0.1229833E-02  0.2090108E+06  0.6541660E-03  0.2884138E+03  0.3140491E+01  0.1206003E+08 -0.1582136E+01  0.6093252E-06 -0.3109537E+01
  0.1600000E+00  0.4219376E+05 -0.1527763E+01  0.1357354E-01  0.2976025E+01  0.3391938E+07 -0.2542165E-02  0.2945180E+00 -0.9776770E-01  0.4957302E+06 -0.1579744E+01  0.1412735E-08 -0.2539305E+01  0.4591694E+06 -0.1575156E+01  0.3532303E+01  0.3137288E+01  0.1736574E+06  0.9005829E-03  0.4805135E+03 -0.1158483E-02  0.1409099E+08 -0.1583410E+01  0.2128232E-06  0.3014965E+01
  0.1800000E+00  0.4959013E+05 -0.1525181E+01  0.6386176E-01  0.3118625E+01  0.3366852E+07 -0.3347573E-02  0.5212402E+01  0.1935000E-02  0.5800158E+06 -0.1580204E+01  0.1066160E-07 -0.3028750E+01  0.5180877E+06 -0.1575624E+01  0.1012926E+02  0.7725116E-02  0.1354586E+06  0.1392361E-02  0.7014401E+03  0.1313244E-02  0.1626728E+08 -0.1584482E+01  0.7552878E-06 -0.3079360E+01
  0.2000000E+00  0.5780159E+05 -0.1522075E+01  0.1171127E+00 -0.2330799E-01  0.3338620E+07 -0.4399534E-02  0.1396523E+01 -0.3138297E+01  0.6737322E+06 -0.1580574E+01  0.9196778E-08  0.5620066E-01  0.5779282E+06 -0.1576063E+01  0.1739923E+02 -0.1677281E-02  0.9534730E+05  0.2860412E-02  0.1926570E+03  0.8312417E-02  0.1861952E+08 -0.1585452E+01  0.2245179E-05 -0.5971626E-01
  0.2200000E+00  0.6713488E+05 -0.1520383E+01  0.6069499E+00  0.8801706E-02  0.3307202E+07 -0.5878719E-02  0.1310211E+01  0.3137755E+01  0.7787345E+06 -0.1580601E+01  0.1196616E-07  0.2736543E-01  0.6386881E+06 -0.1576494E+01  0.1978864E+02  0.3240476E-03  0.5455330E+05  0.7404705E-02  0.2165672E+03 -0.3128181E+01  0.2116498E+08 -0.1586314E+01  0.1691685E-05  0.1223238E-01
  0.2400000E+00  0.7764357E+05 -0.1519085E+01  0.6090727E-01 -0.9024882E-01  0.3272715E+07 -0.7714531E-02  0.6769054E+01 -0.3140396E+01  0.8961358E+06 -0.1580783E+01  0.1522267E-07 -0.3128210E+01  0.7001496E+06 -0.1576776E+01  0.9297467E+00 -0.3062502E+01  0.1429379E+05  0.4550812E-01  0.5907207E+02  0.1072749E+00  0.2391427E+08 -0.1586880E+01  0.2257123E-05 -0.3135055E+01
  0.2600000E+00  0.8960545E+05 -0.1517876E+01  0.2929549E-01  0.3065645E+01  0.3235278E+07 -0.1007568E-01  0.3006326E+01  0.3139334E+01  0.1027224E+07 -0.1580769E+01  0.3124191E-08 -0.3969410E+00  0.7617823E+06 -0.1577062E+01  0.5236729E+01  0.3110017E+01  0.2410845E+05  0.3099345E+01  0.1656529E+03 -0.3101219E+01  0.2686704E+08 -0.1587334E+01  0.1393942E-05 -0.2925535E-01
  0.2800000E+00  0.1025378E+06 -0.1517100E+01  0.3678399E+00 -0.1825862E-02  0.3195298E+07 -0.1308411E-01  0.1789042E+01 -0.1912702E-02  0.1170942E+07 -0.1580370E+01  0.1152045E-07 -0.3002197E+01  0.8223269E+06 -0.1577209E+01  0.2166393E+00  0.5799543E+00  0.5965434E+05  0.3115201E+01  0.5648496E+03 -0.1111907E-01  0.2997451E+08 -0.1587593E+01  0.3163186E-05 -0.3132733E+01
  0.3000000E+00  0.1170853E+06 -0.1517169E+01  0.1898596E+00  0.3125651E+01  0.3152664E+07 -0.1670668E-01  0.1472309E+01 -0.5100682E-01  0.1327547E+07 -0.1580014E+01  0.3137218E-07 -0.3099834E+01  0.8805023E+06 -0.1577352E+01  0.1680113E+02  0.1019928E-01  0.9155973E+05  0.3116225E+01  0.1312729E+03 -0.3107187E+01  0.3319004E+08 -0.1587832E+01  0.3139591E-06  0.3138349E+01
  0.3200000E+00  0.1328424E+06 -0.1516542E+01  0.1211220E+00 -0.1713393E-01  0.3107674E+07 -0.2082073E-01  0.1398802E+01 -0.3049728E+01  0.1494838E+07 -0.1579834E+01  0.1574703E-07  0.1064732E+00  0.9348704E+06 -0.1577391E+01  0.6537930E+01  0.9100731E-02  0.1196205E+06  0.3114022E+01  0.1542015E+03 -0.2018977E-01  0.3644737E+08 -0.1587898E+01  0.1376592E-05  0.3086469E+01
  0.3400000E+00  0.1494750E+06 -0.1515733E+01  0.5942883E-01  0.3137068E+01  0.3060706E+07 -0.2576129E-01  0.2695981E+01 -0.2641687E-01  0.1672390E+07 -0.1579021E+01  0.1184523E-07 -0.7008214E-01  0.9844514E+06 -0.1577384E+01  0.2615369E+00  0.1670602E+01  0.1437365E+06  0.3110174E+01  0.5645901E+03 -0.3130210E+01  0.3970256E+08 -0.1587935E+01  0.2162448E-06 -0.2206653E+01
  0.3600000E+00  0.1676584E+06 -0.1515424E+01  0.3328464E+00  0.5737616E-02  0.3011396E+07 -0.3151519E-01  0.3629181E+01 -0.4731033E-01  0.1858201E+07 -0.1578275E+01  0.3913816E-08  0.5002369E+00  0.1028117E+07 -0.1577347E+01  0.8317260E+01 -0.6687849E-02  0.1640008E+06  0.3105343E+01  0.3204084E+03  0.3123554E+01  0.4287424E+08 -0.1587943E+01  0.1648608E-05 -0.2976846E+01
  0.3800000E+00  0.1864497E+06 -0.1515058E+01  0.4725772E-01 -0.9913654E-01  0.2960342E+07 -0.3789907E-01  0.1089118E+01  0.6925184E-01  0.2051034E+07 -0.1577504E+01  0.8139141E-08 -0.2764406E+01  0.1065706E+07 -0.1577088E+01  0.1067025E+01 -0.2841372E+01  0.1808003E+06  0.3099766E+01  0.1065205E+03 -0.2991597E+00  0.4594286E+08 -0.1587645E+01  0.2360971E-06  0.1068191E+01
  0.4000000E+00  0.2063938E+06 -0.1514550E+01  0.2206015E+00  0.4663250E-01  0.2907545E+07 -0.4511487E-01  0.3917616E+00 -0.5578927E+00  0.2251621E+07 -0.1576709E+01  0.2624761E-07 -0.1480127E+00  0.1097268E+07 -0.1576899E+01  0.2252547E+01 -0.7616743E-01  0.1941453E+06  0.3092706E+01  0.9367632E+02 -0.2830971E+01  0.4888915E+08 -0.1587527E+01  0.9341193E-06 -0.2387067E+00
  0.4200000E+00  0.2275775E+06 -0.1512939E+01  0.1998563E-01 -0.2919774E+01  0.2853242E+07 -0.5319622E-01  0.1969122E+01 -0.1782651E+00  0.2457442E+07 -0.1575676E+01  0.1423174E-07  0.2729182E+01  0.1122197E+07 -0.1576618E+01  0.7742547E+00  0.2803674E+01  0.2044692E+06  0.3084705E+01  0.3233443E+03  0.3127086E+01  0.5162579E+08 -0.1587316E+01  0.1215328E-06 -0.3083848E+01
  0.4400000E+00  0.2489390E+06 -0.1512050E+01  0.1961714E+00  0.1193267E-01  0.2797936E+07 -0.6235923E-01  0.5838735E+00 -0.2893282E+01  0.2668022E+07 -0.1574172E+01  0.1703867E-07  0.6557998E+00  0.1141617E+07 -0.1576099E+01  0.2898165E+01 -0.1027599E+00  0.2121213E+06  0.3076299E+01  0.2510570E+03  0.2081949E-01  0.5420439E+08 -0.1586728E+01  0.1183790E-06 -0.2031720E+01
  0.4600000E+00  0.2721480E+06 -0.1511126E+01  0.2366741E+00 -0.1325448E+00  0.2741412E+07 -0.7259414E-01  0.4214450E+01  0.2818121E-03  0.2883626E+07 -0.1572703E+01  0.1608597E-07 -0.3010954E+01  0.1155182E+07 -0.1575654E+01  0.3634899E+01 -0.3038714E+01  0.2172266E+06  0.3066065E+01  0.1768764E+03  0.1095585E+00  0.5654420E+08 -0.1586361E+01  0.2170112E-06  0.6244630E+00
  0.4800000E+00  0.2962162E+06 -0.1509905E+01  0.3360738E+00 -0.1733917E-01  0.2684038E+07 -0.8358990E-01  0.3056176E+01  0.7990114E-01  0.3102069E+07 -0.1571254E+01  0.2725215E-08 -0.3487717E+00  0.1163373E+07 -0.1575071E+01  0.2486042E+01 -0.1302067E-01  0.2202178E+06  0.3054960E+01  0.8627879E+02  0.2899460E+01  0.5863674E+08 -0.1585828E+01  0.3289321E-06 -0.2726337E+01
  0.5000000E+00  0.3207096E+06 -0.1508265E+01  0.1731714E-01  0.8948857E+00  0.2626084E+07 -0.9548716E-01  0.2689917E+01 -0.3116804E+01  0.3321592E+07 -0.1569667E+01  0.1782305E-07 -0.3105660E+01  0.1166888E+07 -0.1574281E+01  0.1752981E+00 -0.1189740E+01  0.2215140E+06  0.3043328E+01  0.2207395E+03 -0.3066111E+01  0.6049221E+08 -0.1585038E+01  0.6141763E-06 -0.1410878E+00
  0.5200000E+00  0.3451092E+06 -0.1506500E+01  0.2986448E+00  0.4699130E-01  0.2567714E+07 -0.1083905E+00  0.8920217E+00  0.3081460E+01  0.3546073E+07 -0.1567629E+01  0.3404924E-07 -0.1752664E+00  0.1167302E+07 -0.1573378E+01  0.4674791E+01  0.3091054E+01  0.2210222E+06  0.3029931E+01  0.1906787E+03 -0.7242939E-01  0.6220424E+08 -0.1584093E+01  0.3736702E-06 -0.6813825E+00
  0.5400000E+00  0.3720390E+06 -0.1504173E+01  0.1921470E+00  0.5335555E-01  0.2509232E+07 -0.1227755E+00  0.4801438E+01  0.3032278E+01  0.3769184E+07 -0.1565399E+01  0.2653204E-07  0.2699531E+01  0.1162230E+07 -0.1572620E+01  0.1843861E+01  0.7452889E-01  0.2192713E+06  0.3015877E+01  0.4117903E+02 -0.2277425E+01  0.6352106E+08 -0.1583478E+01  0.1519419E-06 -0.1210921E+01
  0.5599999E+00  0.3995733E+06 -0.1502093E+01  0.1555850E+00 -0.3091008E+01  0.2450758E+07 -0.1382224E+00  0.2568918E+01  0.2834683E+01  0.3990168E+07 -0.1563066E+01  0.3908076E-07 -0.3014651E+01  0.1153418E+07 -0.1571672E+01  0.2151181E+01  0.7935029E-01  0.2165499E+06  0.3000284E+01  0.1192651E+03 -0.2838585E-01  0.6455930E+08 -0.1582618E+01  0.2634513E-06  0.2988322E+01
  0.5800000E+00  0.4273013E+06 -0.1499956E+01  0.3924870E-01 -0.6734506E+00  0.2392545E+07 -0.1546567E+00  0.1170143E+01 -0.1747690E+00  0.4210090E+07 -0.1560508E+01  0.3652423E-07 -0.2859615E+00  0.1141919E+07 -0.1570418E+01  0.2201979E+01 -0.3041178E+01  0.2131007E+06  0.2984657E+01  0.1266344E+03 -0.1905164E+00  0.6537643E+08 -0.1581336E+01  0.9430153E-07  0.6539810E-01
  0.6000000E+00  0.4546570E+06 -0.1498167E+01  0.1176517E+00 -0.2839168E+01  0.2334476E+07 -0.1719634E+00  0.4510862E+01  0.7555205E-01  0.4429734E+07 -0.1557759E+01  0.2695819E-07 -0.2965795E+01  0.1128723E+07 -0.1569034E+01  0.2727201E+01 -0.6046664E-01  0.2087225E+06  0.2966384E+01  0.1948189E+02  0.2555017E+01  0.6603312E+08 -0.1579895E+01  0.1574445E-06 -0.1433203E+01
  0.6200000E+00  0.4839215E+06 -0.1495370E+01  0.1599369E+00 -0.3333869E+00  0.2276804E+07 -0.1904684E+00  0.2470485E+01 -0.2974949E+01  0.4642656E+07 -0.1555193E+01  0.6507814E-08 -0.2394151E+01  0.1111618E+07 -0.1568095E+01  0.1905166E+01 -0.2894528E+01  0.2039465E+06  0.2947992E+01  0.1436285E+03  0.2608274E+01  0.6631654E+08 -0.1579179E+01  0.1715778E-06 -0.6616010E+00
  0.6400000E+00  0.5135627E+06 -0.1492444E+01  0.3019650E+00  0.7256395E-01  0.2219532E+07 -0.2097807E+00  0.4647284E+01 -0.1875361E+00  0.4848651E+07 -0.1552463E+01  0.3742010E-07  0.1231974E+00  0.1091860E+07 -0.1567049E+01  0.7328461E+00  0.2740603E+01  0.1988425E+06  0.2927746E+01  0.3666278E+03  0.3098457E+01  0.6632115E+08 -0.1578289E+01  0.1653928E-06  0.1607010E+01
  0.6600000E+00  0.5440539E+06 -0.1488933E+01  0.7622943E-01  0.1193255E+01  0.2162926E+07 -0.2303303E+00  0.1050102E+02 -0.8431002E-01  0.5046908E+07 -0.1549594E+01  0.1885964E-07 -0.6496738E+00  0.1069390E+07 -0.1566012E+01  0.9988414E+00 -0.6146173E+00  0.1935174E+06  0.2907723E+01  0.3315624E+02 -0.1408041E+01  0.6603074E+08 -0.1577420E+01  0.4142668E-06  0.2782812E+01
  0.6800000E+00  0.5711434E+06 -0.1486397E+01  0.3790280E-01 -0.3878472E+00  0.2107086E+07 -0.2521316E+00  0.5268910E+00 -0.3060820E+01  0.5244170E+07 -0.1546274E+01  0.2538955E-07 -0.2583479E+01  0.1048186E+07 -0.1564574E+01  0.3644686E+01 -0.3117877E+01  0.1878643E+06  0.2885868E+01  0.1384809E+03  0.2848948E+01  0.6578373E+08 -0.1575942E+01  0.1980296E-06  0.2703269E+01
  0.7000000E+00  0.5996434E+06 -0.1483750E+01  0.8392707E-01  0.2922664E+00  0.2052002E+07 -0.2752416E+00  0.2594649E+01  0.2676482E+01  0.5431118E+07 -0.1543204E+01  0.2044274E-07  0.2493536E+01  0.1023876E+07 -0.1563851E+01  0.1971325E+01  0.6428841E-01  0.1822294E+06  0.2861966E+01  0.8834750E+02  0.2893482E+01  0.6519294E+08 -0.1575428E+01  0.1451020E-06 -0.1925857E+01
  0.7200000E+00  0.6323458E+06 -0.1481226E+01  0.1690838E+00 -0.2692283E+01  0.1997964E+07 -0.2994796E+00  0.3840211E+01  0.1347285E+00  0.5599088E+07 -0.1540431E+01  0.3184443E-08 -0.2825623E+01  0.9936286E+06 -0.1563593E+01  0.1319956E+01 -0.1316884E+01  0.1765478E+06  0.2838426E+01  0.2530274E+02  0.1025914E+01  0.6400533E+08 -0.1575560E+01  0.3156505E-06  0.2146401E+01
  0.7399999E+00  0.6649832E+06 -0.1478921E+01  0.3560022E+00  0.3088028E+01  0.1944794E+07 -0.3244324E+00  0.1580987E+01  0.3083617E+01  0.5753227E+07 -0.1537833E+01  0.1946792E-07  0.4154922E+00  0.9612624E+06 -0.1563525E+01  0.3708897E+00 -0.2393694E+00  0.1709535E+06  0.2812715E+01  0.1450979E+03  0.2748716E+01  0.6255625E+08 -0.1575883E+01  0.2124098E-06  0.2875377E+01
  0.7600000E+00  0.6958516E+06 -0.1476784E+01  0.3345377E+00 -0.3445496E-01  0.1892706E+07 -0.3503241E+00  0.6058787E+00 -0.2960579E+01  0.5893182E+07 -0.1535469E+01  0.1821518E-07  0.1305665E+01  0.9286498E+06 -0.1563503E+01  0.9027281E+00 -0.2081587E+01  0.1653708E+06  0.2787483E+01  0.1208229E+03  0.2804938E+01  0.6100775E+08 -0.1576186E+01  0.6297552E-07 -0.2833503E+01
  0.7800000E+00  0.7213929E+06 -0.1475291E+01  0.2703460E+00  0.2875480E+01  0.1841332E+07 -0.3768910E+00  0.3395155E+01  0.2538159E+01  0.6026349E+07 -0.1533205E+01  0.1272340E-07  0.2571355E+01  0.8993457E+06 -0.1563252E+01  0.5585111E+00  0.3060757E+01  0.1598110E+06  0.2760378E+01  0.9007673E+02  0.6557841E+00  0.5967676E+08 -0.1576033E+01  0.2192496E-06  0.3620469E+00
  0.8000000E+00  0.7233166E+06 -0.1467253E+01  0.9839124E-01 -0.2774690E+01  0.1788388E+07 -0.4032116E+00  0.5128547E+01 -0.3023058E+01  0.6190396E+07 -0.1532005E+01  0.1874395E-07 -0.1120291E+00  0.8942104E+06 -0.1566682E+01  0.9413605E+00 -0.3121738E+01  0.1542523E+06  0.2732650E+01  0.1497977E+03 -0.3140104E+01  0.6039722E+08 -0.1580173E+01  0.1151545E-07  0.3789701E+00
  0.8199999E+00  0.7514684E+06 -0.1465141E+01  0.3499903E+00 -0.2795316E+01  0.1738296E+07 -0.4320321E+00  0.2599909E+01 -0.2507320E+00  0.6289734E+07 -0.1531240E+01  0.1756483E-07  0.3448073E+00  0.8590168E+06 -0.1570304E+01  0.9687516E+00  0.2739479E+01  0.1488775E+06  0.2704134E+01  0.1197564E+03 -0.2988271E+00  0.5841555E+08 -0.1584742E+01  0.2205392E-06  0.2995433E+01
  0.8400000E+00  0.7808116E+06 -0.1464405E+01  0.4549032E-01  0.2992658E+01  0.1688865E+07 -0.4618820E+00  0.1958885E+01 -0.7035376E+00  0.6370343E+07 -0.1530979E+01  0.1661316E-07 -0.1725577E+01  0.8205374E+06 -0.1574463E+01  0.1636938E+01  0.8046493E-01  0.1436815E+06  0.2673381E+01  0.2719401E+03  0.2868460E+01  0.5608229E+08 -0.1589834E+01  0.1048916E-06  0.1877872E+01
  0.8600000E+00  0.8084850E+06 -0.1464699E+01  0.3109994E+00  0.1048250E+01  0.1641008E+07 -0.4930035E+00  0.1844782E+01  0.2877843E+01  0.6433268E+07 -0.1531453E+01  0.1794950E-07  0.2101205E+01  0.7810868E+06 -0.1579638E+01  0.1825980E+00  0.1577315E+01  0.1385500E+06  0.2642713E+01  0.3463882E+02 -0.2392238E+01  0.5360224E+08 -0.1596037E+01  0.1755953E-06 -0.2221255E+01
  0.8800000E+00  0.8347167E+06 -0.1465984E+01  0.1354894E+00  0.2807252E+01  0.1594262E+07 -0.5253990E+00  0.4025869E+00  0.7384039E+00  0.6478684E+07 -0.1532731E+01  0.1386271E-07 -0.1347712E+00  0.7411396E+06 -0.1585683E+01  0.1829912E+01 -0.4337039E-01  0.1334866E+06  0.2611433E+01  0.1264318E+03  0.1505963E+00  0.5101963E+08 -0.1603152E+01  0.3755556E-07 -0.1087356E+01
  0.9000000E+00  0.8558814E+06 -0.1468858E+01  0.1959961E+00 -0.1916928E+01  0.1548332E+07 -0.5584475E+00  0.3397053E+01 -0.2018271E+00  0.6514750E+07 -0.1534639E+01  0.1816675E-07 -0.3115957E+01  0.7047231E+06 -0.1591429E+01  0.6866462E+00 -0.2861917E+01  0.1286451E+06  0.2577931E+01  0.1305125E+03 -0.4799150E+00  0.4869197E+08 -0.1609609E+01  0.1601550E-06  0.9190066E+00
  0.9200000E+00  0.8756552E+06 -0.1472813E+01  0.1078623E+00  0.1180682E+01  0.1503552E+07 -0.5925814E+00  0.6563530E+01 -0.2923547E+01  0.6536624E+07 -0.1537568E+01  0.1557748E-07  0.2957517E+00  0.6684728E+06 -0.1598498E+01  0.1074528E+01  0.2487929E+00  0.1241088E+06  0.2542048E+01  0.1014998E+03  0.4514158E+00  0.4632372E+08 -0.1617519E+01  0.1276662E-06  0.6942925E+00
  0.9400000E+00  0.9026272E+06 -0.1477152E+01  0.1956019E+00 -0.2505713E+01  0.1459931E+07 -0.6277542E+00  0.1459239E+01  0.1133454E+01  0.6526520E+07 -0.1542312E+01  0.1916473E-07 -0.6605104E+00  0.6227315E+06 -0.1611181E+01  0.1373874E+01 -0.1297089E+01  0.1195048E+06  0.2507696E+01  0.5621713E+02  0.2770694E+00  0.4307872E+08 -0.1632593E+01  0.1411550E-06 -0.1745817E+00
  0.9600000E+00  0.9261224E+06 -0.1482708E+01  0.7279100E-01 -0.1880739E+01  0.1417036E+07 -0.6639172E+00  0.8123737E+01 -0.3004205E+01  0.6503162E+07 -0.1548308E+01  0.7805909E-08 -0.1873681E+01  0.5794311E+06 -0.1625440E+01  0.1140288E+01  0.2444251E-01  0.1149509E+06  0.2472965E+01  0.7787885E+02  0.2605613E+01  0.4000108E+08 -0.1649481E+01  0.1231995E-06 -0.2158397E+00
  0.9800000E+00  0.9514725E+06 -0.1490442E+01  0.5528206E-01 -0.1442094E+01  0.1375337E+07 -0.7011384E+00  0.4300617E+01 -0.4146843E+00  0.6457403E+07 -0.1555692E+01  0.1715260E-07  0.1638719E+01  0.5322872E+06 -0.1642038E+01  0.9591429E+00 -0.2911485E+01  0.1108217E+06  0.2434397E+01  0.2021650E+03 -0.3419574E-01  0.3654440E+08 -0.1669448E+01  0.5162777E-07  0.2610688E+01
  0.1000000E+01  0.9757100E+06 -0.1499858E+01  0.4541036E+00  0.3007947E+01  0.1334716E+07 -0.7393421E+00  0.2275326E+01  0.3109783E+01  0.6393435E+07 -0.1564523E+01  0.2698124E-07  0.2065322E+01  0.4845536E+06 -0.1661040E+01  0.1194556E+01 -0.4724087E+00  0.1065875E+06  0.2397340E+01  0.4970511E+03 -0.6399749E-01  0.3299709E+08 -0.1692628E+01  0.4924938E-07 -0.1116434E+01
  0.1020000E+01  0.9943101E+06 -0.1510896E+01  0.1028546E+00  0.2902857E+01  0.1294943E+07 -0.7785501E+00  0.1594140E+01  0.1983179E+01  0.6322665E+07 -0.1574732E+01  0.3034424E-07 -0.1779478E+01  0.4415246E+06 -0.1680688E+01  0.3527775E+01  0.1073728E+00  0.1024538E+06  0.2359335E+01  0.5319266E+03 -0.7262843E-01  0.2982156E+08 -0.1716573E+01  0.6968481E-07 -0.1323623E+00
  0.1040000E+01  0.1000550E+07 -0.1523370E+01  0.4160215E+00 -0.2828269E+01  0.1255497E+07 -0.8185509E+00  0.4056376E+01  0.8405255E+00  0.6256659E+07 -0.1586097E+01  0.2250884E-07  0.2253614E+01  0.4098416E+06 -0.1698925E+01  0.3161868E+01  0.5347236E-01  0.9864869E+05  0.2318233E+01  0.1731772E+03  0.4096020E+00  0.2760170E+08 -0.1737548E+01  0.6455684E-07  0.1436458E+01
  0.1060000E+01  0.1004882E+07 -0.1536806E+01  0.1129884E+00  0.9013113E-01  0.1216931E+07 -0.8596084E+00  0.2620417E+01  0.1179142E+01  0.6180668E+07 -0.1599438E+01  0.7275091E-07  0.1516363E+01  0.3789371E+06 -0.1722361E+01  0.2562625E+01  0.2510402E-02  0.9506445E+05  0.2275739E+01  0.1623974E+03  0.1736188E+01  0.2541987E+08 -0.1765123E+01  0.1031951E-06 -0.1476590E+01
  0.1080000E+01  0.1019970E+07 -0.1551333E+01  0.2508451E+00  0.1297227E-01  0.1179823E+07 -0.9019784E+00  0.1263839E+01 -0.4771787E+00  0.6076221E+07 -0.1615341E+01  0.2127950E-07 -0.1259426E+01  0.3361982E+06 -0.1760989E+01  0.4153618E+01  0.7065565E-01  0.9131622E+05  0.2234209E+01  0.6880488E+02  0.5541226E+00  0.2218576E+08 -0.1815069E+01  0.8321545E-07  0.8506046E+00
  0.1100000E+01  0.1046344E+07 -0.1569791E+01  0.1098230E+00  0.6548527E+00  0.1143984E+07 -0.9455335E+00  0.9538057E+00  0.3971408E-01  0.5938043E+07 -0.1633113E+01  0.4170204E-07 -0.1984486E+01  0.2809390E+06 -0.1810977E+01  0.2849881E+01  0.1145587E-01  0.8749780E+05  0.2192773E+01  0.8840462E+02 -0.2921303E+01  0.1784293E+08 -0.1887045E+01  0.9569531E-07 -0.1509691E+01
  0.1120000E+01  0.1079307E+07 -0.1591965E+01  0.9469362E-01  0.5211499E+00  0.1108577E+07 -0.9899228E+00  0.6282121E+00 -0.2438504E+00  0.5778328E+07 -0.1652234E+01  0.5162176E-07  0.1911090E+01  0.2192177E+06 -0.1876911E+01  0.2828599E+01  0.1248938E+00  0.8438361E+05  0.2147517E+01  0.7107629E+02 -0.2861949E+01  0.1295173E+08 -0.1999240E+01  0.2248159E-06 -0.1489042E+01
  0.1140000E+01  0.1119974E+07 -0.1617341E+01  0.8444453E-01 -0.2690673E+01  0.1075494E+07 -0.1035312E+01  0.8103941E+01  0.2817477E+01  0.5601188E+07 -0.1672543E+01  0.3800279E-07  0.9113650E+00  0.1507020E+06 -0.1986176E+01  0.2863750E+01  0.2016966E+00  0.8127882E+05  0.2102668E+01  0.2327668E+03 -0.2778727E+01  0.7649084E+07 -0.2252698E+01  0.5469846E-07  0.1126084E+01
  0.1160000E+01  0.1176503E+07 -0.1649802E+01  0.1239583E+00  0.4089003E+00  0.1042972E+07 -0.1082484E+01  0.1364894E+01 -0.1008574E+00  0.5390558E+07 -0.1693234E+01  0.3004147E-07 -0.1902350E+01  0.6852302E+05 -0.2282719E+01  0.1758199E+01 -0.3410715E+00  0.7781773E+05  0.2057880E+01  0.9382550E+02  0.2786561E+01  0.3541603E+07  0.2783518E+01  0.9768542E-07  0.1716301E+01
  0.1180000E+01  0.1212162E+07 -0.1681151E+01  0.6108818E-01 -0.1872432E+00  0.1011420E+07 -0.1129815E+01  0.2513421E+01  0.2955431E+00  0.5210430E+07 -0.1715479E+01  0.1761683E-07 -0.5109496E+00  0.3193212E+05  0.2774754E+01  0.2030008E+01 -0.6070879E-01  0.7470964E+05  0.2012162E+01  0.1277147E+03 -0.2957814E+01  0.6717608E+07  0.1859715E+01  0.1503283E-06 -0.1568873E+01
  0.1200000E+01  0.1216681E+07 -0.1712307E+01  0.4893156E-01  0.2991030E+01  0.9787007E+06 -0.1177684E+01  0.3404417E+01  0.2154566E+01  0.5073112E+07 -0.1739178E+01  0.3276631E-07 -0.1237810E+01  0.4521156E+05  0.1960386E+01  0.1365975E+01 -0.4641678E+00  0.7202543E+05  0.1963677E+01  0.1445023E+03  0.2596642E+01  0.8797094E+07  0.1652916E+01  0.8211585E-07 -0.1703193E+01
  0.1220000E+01  0.1224783E+07 -0.1744183E+01  0.1254096E+00 -0.3059250E+01  0.9472910E+06 -0.1226651E+01  0.3394711E+00 -0.1988019E+01  0.4924702E+07 -0.1765303E+01  0.3605193E-07  0.6202496E+00  0.7678386E+05  0.1614025E+01  0.1501407E+01 -0.3748832E+00  0.6951126E+05  0.1915361E+01  0.1958850E+03  0.2659427E+01  0.1152962E+08  0.1521305E+01  0.2387530E-06 -0.1451315E+01
  0.1240000E+01  0.1266865E+07 -0.1776834E+01  0.3552440E-01  0.8468648E+00  0.9170879E+06 -0.1276751E+01  0.9533607E+00  0.7095761E+00  0.4718860E+07 -0.1795289E+01  0.4933592E-08  0.2804917E+01  0.1498852E+06  0.1453252E+01  0.1844684E+01  0.2223682E+00  0.6673233E+05  0.1865979E+01  0.1653511E+03  0.2441857E+01  0.1772066E+08  0.1430203E+01  0.1821367E-07  0.3511996E+00
  0.1260000E+01  0.1334276E+07 -0.1811472E+01  0.2717526E+00  0.3060466E+01  0.8879726E+06 -0.1327985E+01  0.9154077E+00  0.1172024E+01  0.4471145E+07 -0.1827660E+01  0.3775376E-07  0.4318302E-01  0.2492147E+06  0.1373096E+01  0.1438115E+01 -0.7150437E+00  0.6351219E+05  0.1816667E+01  0.1005113E+03 -0.2838579E+01  0.2619838E+08  0.1366304E+01  0.2940604E-06 -0.1891882E+01
  0.1280000E+01  0.1429487E+07 -0.1852672E+01  0.1448903E+00 -0.6890272E-01  0.8599412E+06 -0.1379468E+01  0.4965698E+01 -0.1699029E+00  0.4175892E+07 -0.1859880E+01  0.3722088E-07 -0.2329652E+01  0.3755591E+06  0.1297988E+01  0.2211702E+01  0.2158330E+00  0.6064872E+05  0.1766684E+01  0.7985175E+02  0.2358673E+01  0.3706908E+08  0.1298065E+01  0.7633867E-07  0.2238857E+01
  0.1300000E+01  0.1542863E+07 -0.1900900E+01  0.5724176E-01  0.3061937E+01  0.8297435E+06 -0.1433385E+01  0.2690308E+01  0.2170558E+00  0.3853321E+07 -0.1890710E+01  0.4488562E-07 -0.1769209E+01  0.5195998E+06  0.1223571E+01  0.1594859E+01 -0.6580164E+00  0.5870104E+05  0.1718436E+01  0.1456266E+03 -0.3098894E+01  0.4951404E+08  0.1226468E+01  0.2438885E-06 -0.2160785E+01
  0.1320000E+01  0.1736209E+07 -0.1957144E+01  0.1696771E+00 -0.1812580E+01  0.8046246E+06 -0.1488019E+01  0.1763012E+01  0.1285008E+00  0.3410072E+07 -0.1916400E+01  0.1253831E-07  0.1190289E+01  0.7480251E+06  0.1151304E+01  0.1562582E+01 -0.7671455E-01  0.5621479E+05  0.1668127E+01  0.3954921E+02 -0.2984361E+01  0.6937882E+08  0.1154765E+01  0.3051325E-06  0.1617383E+01
  0.1340000E+01  0.2041597E+07 -0.2022055E+01  0.1618891E+00 -0.2414144E+01  0.7794908E+06 -0.1546504E+01  0.7019715E+00 -0.1713577E+00  0.2803104E+07 -0.1928506E+01  0.7294886E-07 -0.1526097E+01  0.1087712E+07  0.1077527E+01  0.1962944E+01  0.3279116E+00  0.5285864E+05  0.1613653E+01  0.8726566E+02 -0.1517520E+01  0.9907617E+08  0.1080858E+01  0.1836389E-06 -0.1742905E+01
  0.1360000E+01  0.2397923E+07 -0.2098355E+01  0.3159575E+00 -0.1988982E+01  0.7558439E+06 -0.1604554E+01  0.1146911E+01 -0.3087395E+01  0.2137064E+07 -0.1894814E+01  0.1101446E-06  0.1553885E+01  0.1479768E+07  0.9944004E+00  0.1870926E+01 -0.9294512E-01  0.5002207E+05  0.1559775E+01  0.7521870E+02  0.2252026E+01  0.1333513E+09  0.9974325E+00  0.4234112E-06 -0.2295153E+00
  0.1380000E+01  0.2669182E+07 -0.2172457E+01  0.2512270E+00  0.8675096E+00  0.7216105E+06 -0.1661060E+01  0.4601817E+00 -0.1154310E+01  0.1633308E+07 -0.1810758E+01  0.5957052E-07  0.1126377E+01  0.1774029E+07  0.9148846E+00  0.2700179E+01  0.2745361E+00  0.4927686E+05  0.1515043E+01  0.4602422E+02  0.8281768E+00  0.1590832E+09  0.9176594E+00  0.5508996E-06  0.1861919E+01
  0.1400000E+01  0.3032410E+07 -0.2257503E+01  0.4856324E+00  0.2522848E+01  0.6924129E+06 -0.1724762E+01  0.2295990E+00  0.1213541E+01  0.1107198E+07 -0.1514499E+01  0.6156819E-07 -0.3755907E+00  0.2167048E+07  0.8239939E+00  0.2760209E+01  0.9810410E-01  0.4692086E+05  0.1472668E+01  0.8467358E+02  0.2578830E+01  0.1935525E+09  0.8269442E+00  0.2309515E-06 -0.1920085E+01
  0.1420000E+01  0.4554220E+07 -0.2343221E+01  0.1744886E+00 -0.4659941E+00  0.6576826E+06 -0.1785939E+01  0.1248415E+01  0.1318325E+01  0.1792610E+07  0.3541738E+00  0.2414982E-06  0.1004361E+00  0.3746653E+07  0.7635517E+00  0.9856388E+00  0.6190750E+00  0.4814971E+05  0.1451642E+01  0.2679397E+03 -0.1481668E+01  0.3325173E+09  0.7646375E+00  0.3341494E-06 -0.1408900E+01
  0.1440000E+01  0.4676525E+08 -0.2412721E+01  0.6082994E+01 -0.7131538E-02  0.4356004E+06 -0.2235187E+01  0.1013683E+01  0.9722544E+00  0.6440282E+08  0.7876077E+00  0.3135329E-05 -0.9914854E+00  0.4698312E+08  0.7448235E+00  0.9745978E+01 -0.2319380E+01  0.5478545E+05  0.1982847E+01  0.1101454E+04  0.3557110E+00  0.4140496E+10  0.7437410E+00  0.5218263E-05 -0.2697585E+01
  0.1460000E+01  0.3832761E+07  0.7323744E+00  0.6689363E+00 -0.2330877E-01  0.6596158E+06 -0.1861385E+01  0.2186699E+01 -0.2869691E+01  0.1064451E+08 -0.2269609E+01  0.2708348E-06 -0.2629484E+01  0.4787326E+07 -0.2351529E+01  0.1916144E+01  0.5056911E+00  0.4503542E+05  0.1221674E+01  0.1310427E+03 -0.2145557E+01  0.4194148E+09 -0.2353896E+01  0.7489443E-06 -0.6034511E+00
  0.1480000E+01  0.1934901E+07  0.6421606E+00  0.8078923E-01 -0.1805250E+01  0.6278413E+06 -0.1932623E+01  0.3887607E+00 -0.2317879E+01  0.7672613E+07 -0.2312104E+01  0.1737137E-06  0.2340082E+01  0.2815468E+07 -0.2405297E+01  0.1639287E+01 -0.1049160E+00  0.4173564E+05  0.1174989E+01  0.9391386E+02 -0.3082463E+01  0.2458873E+09 -0.2408343E+01  0.7030378E-06 -0.1339288E+01
  0.1500000E+01  0.1235742E+07  0.5539914E+00  0.5661337E-01 -0.1622242E+00  0.6063622E+06 -0.1996115E+01  0.4527689E+01 -0.2997535E+01  0.6491387E+07 -0.2358147E+01  0.5443708E-07  0.1280159E+01  0.2067952E+07 -0.2456367E+01  0.9064783E+00 -0.2864772E+00  0.3888348E+05  0.1085931E+01  0.5715956E+02 -0.2949564E+01  0.1802354E+09 -0.2459880E+01  0.1626437E-06 -0.2612873E+01
  0.1520000E+01  0.8569459E+06  0.4409585E+00  0.2048395E+00 -0.1830554E+01  0.5811396E+06 -0.2059638E+01  0.2941080E+01 -0.2608047E+01  0.5791266E+07 -0.2410440E+01  0.8635789E-07  0.1209817E+01  0.1656908E+07 -0.2515352E+01  0.5561760E+00  0.1432555E+00  0.3723923E+05  0.1042572E+01  0.3953569E+02 -0.3115328E+01  0.1441316E+09 -0.2519560E+01  0.6806372E-07  0.1466862E+01
  0.1540000E+01  0.6190554E+06  0.2874303E+00  0.1144930E+00  0.1551404E+01  0.5581792E+06 -0.2124410E+01  0.9747043E+00  0.1639929E+00  0.5286608E+07 -0.2467252E+01  0.7568284E-07  0.1845937E-01  0.1381302E+07 -0.2587623E+01  0.6467832E+00 -0.6830455E-01  0.3607377E+05  0.9996023E+00  0.5006375E+02 -0.3132905E+01  0.1199868E+09 -0.2592447E+01  0.1513955E-06 -0.1289144E+01
  0.1560000E+01  0.5064428E+06  0.1640404E+00  0.2793689E-01 -0.1076245E+01  0.5358431E+06 -0.2189777E+01  0.5923429E+00 -0.1073545E+01  0.4973951E+07 -0.2522547E+01  0.1672819E-07  0.6073052E+00  0.1239318E+07 -0.2649534E+01  0.1031963E+01  0.7183674E-01  0.3457215E+05  0.9495444E+00  0.4412303E+02 -0.3072037E+01  0.1075820E+09 -0.2654708E+01  0.1187073E-06  0.9761697E+00