VARIABLES="Period (s)" "|Fx| (N/m)" "|Fy| (N/m)" "|Fz| (N/m)" "|Cx| (N)" "|Cy| (N)" "|Cz| (N)" "ang(Fx) (°)" "ang(Fy) (°)" "ang(Fz) (°)" "ang(Cx) (°)" "ang(Cy) (°)" "ang(Cz) (°)"
Zone t="Corps  1"
Zone t="Diffraction force - beta =   0.000 deg",I=   100,F=POINT
 0.0200  0.456838E+04  0.267664E+00  0.348278E+07  0.656566E+01  0.539119E+05  0.924670E-09 *******    3.85 *******   95.88 *******    0.00
   -0.35  -89.94  -89.99 -269.99    0.64 -266.14
    0.04   89.95  -90.01   90.00    0.10   89.80
 0.0400  0.918467E+04  0.405141E+00  0.347848E+07  0.995042E+01  0.108966E+06  0.200327E-07 *******    8.44 *******  438.28 *******    0.00
   -0.71  -90.01  -89.98  -90.00    0.42  -89.40
    0.07  -90.04  -90.01 -269.98    0.20  -95.39
 0.0600  0.139264E+05  0.436399E+00  0.347136E+07  0.681999E+01  0.165297E+06  0.298514E-07 *******    3.30 *******  377.38 *******    0.00
   -1.05 -269.90  -89.97  -90.04    0.38  -89.99
    0.09 -269.95  -90.01  -89.97    0.29  -88.53
 0.0800  0.188523E+05  0.407181E+00  0.346137E+07  0.133383E+01  0.223503E+06  0.411835E-08 *******   18.00 *******  612.93 *******    0.00
   -1.38  -89.88  -89.96  -90.03    0.39  -85.47
    0.13  -90.06  -90.02  -89.98    0.39  -90.14
 0.1000  0.240461E+05  0.319233E+00  0.344851E+07  0.127987E+01  0.284535E+06  0.338550E-07 *******    2.85 *******  331.75 *******    0.00
   -1.69 -270.00  -89.94   89.93    0.42  -90.06
    0.16 -269.74  -90.02  -90.00    0.48 -268.67
 0.1200  0.296058E+05  0.626014E+00  0.343267E+07  0.323286E+01  0.349590E+06  0.134093E-08 *******   17.30 *******   55.03 *******    0.00
   -1.97  -89.94  -89.92  -90.03    0.45   80.95
    0.19   89.99  -90.03   89.79    0.57  -97.93
 0.1400  0.356146E+05  0.139283E+00  0.341383E+07  0.983081E+00  0.419477E+06  0.121344E-07 *******   11.86 *******  288.41 *******    0.00
   -2.22   89.72  -89.89  -89.09    0.49   87.39
    0.22  -90.07  -90.04 -269.94    0.65   88.16
 0.1600  0.421938E+05  0.135735E-01  0.339194E+07  0.294518E+00  0.495730E+06  0.141274E-08 *******    3.53 *******  480.51 *******    0.00
   -2.47 -260.51  -89.85  -84.40    0.51   55.49
    0.25 -269.75  -90.05  -89.93    0.72 -262.74
 0.1800  0.495901E+05  0.638618E-01  0.336685E+07  0.521240E+01  0.580016E+06  0.106616E-07 *******   10.13 *******  701.44 *******    0.00
   -2.61 -268.68  -89.81  -90.11    0.54   83.53
    0.28  -90.44  -90.08  -90.08    0.78   86.43
 0.2000  0.578016E+05  0.117113E+00  0.333862E+07  0.139652E+01  0.673732E+06  0.919678E-08 *******   17.40 *******  192.66 *******    0.00
   -2.79  -88.66  -89.75   89.81    0.56  -93.22
    0.30  -89.90  -90.16  -90.48    0.84  -86.58
 0.2200  0.671349E+05  0.606950E+00  0.330720E+07  0.131021E+01  0.778734E+06  0.119662E-07 *******   19.79 *******  216.57 *******    0.00
   -2.89  -90.50  -89.66 -269.78    0.56  -91.57
    0.33  -90.02  -90.42   89.23    0.89  -90.70
 0.2400  0.776436E+05  0.609073E-01  0.327272E+07  0.676905E+01  0.896136E+06  0.152227E-07 *******    0.93 *******   59.07 *******    0.00
   -2.96  -84.83  -89.56   89.93    0.57   89.23
    0.34   85.47  -92.61  -96.15    0.92   89.63
 0.2600  0.896055E+05  0.292955E-01  0.323528E+07  0.300633E+01  0.102722E+07  0.312419E-08 *******    5.24 *******  165.65 *******    0.00
   -3.03 -265.65  -89.42 -269.87    0.57  -67.26
    0.36 -268.19 -267.58   87.69    0.95  -88.32
 0.2800  0.102538E+06  0.367840E+00  0.319530E+07  0.178904E+01  0.117094E+07  0.115205E-07 *******    0.22 *******  564.85 *******    0.00
   -3.08  -89.90  -89.25  -89.89    0.55   82.01
    0.37 -123.23 -268.49  -89.36    0.96   89.49
 0.3000  0.117085E+06  0.189860E+00  0.315266E+07  0.147231E+01  0.132755E+07  0.313722E-07 *******   16.80 *******  131.27 *******    0.00
   -3.07 -269.09  -89.04  -87.08    0.53   87.61
    0.38  -90.58 -268.55   88.03    0.98 -269.81
 0.3200  0.132842E+06  0.121122E+00  0.310767E+07  0.139880E+01  0.149484E+07  0.157470E-07 *******    6.54 *******  154.20 *******    0.00
   -3.11  -89.02  -88.81   84.74    0.52  -96.10
    0.38  -90.52 -268.42  -88.84    0.98 -266.84
 0.3400  0.149475E+06  0.594288E-01  0.306071E+07  0.269598E+01  0.167239E+07  0.118452E-07 *******    0.26 *******  564.59 *******    0.00
   -3.15 -269.74  -88.52  -88.49    0.47  -85.98
    0.38 -185.72 -268.20   89.35    0.98   36.43
 0.3600  0.167658E+06  0.332846E+00  0.301140E+07  0.362918E+01  0.185820E+07  0.391382E-08 *******    8.32 *******  320.41 *******    0.00
   -3.17  -90.33  -88.19  -87.29    0.43 -118.66
    0.38  -89.62 -267.92 -268.97    0.98   80.56
 0.3800  0.186450E+06  0.472577E-01  0.296034E+07  0.108912E+01  0.205103E+07  0.813914E-08 *******    1.07 *******  106.52 *******    0.00
   -3.19  -84.32  -87.83  -93.97    0.38   68.39
    0.36   72.80 -267.60  -72.86    0.97 -151.20
 0.4000  0.206394E+06  0.220601E+00  0.290754E+07  0.391762E+00  0.225162E+07  0.262476E-07 *******    2.25 *******   93.68 *******    0.00
   -3.22  -92.67  -87.42  -58.04    0.34  -81.52
    0.35  -85.64 -267.20   72.20    0.96  -76.32
 0.4200  0.227577E+06  0.199856E-01  0.285324E+07  0.196912E+01  0.245744E+07  0.142317E-07 *******    0.77 *******  323.34 *******    0.00
   -3.31   77.29  -86.95  -79.79    0.28 -246.37
    0.33 -250.64 -266.74 -269.17    0.95   86.69
 0.4400  0.248939E+06  0.196171E+00  0.279794E+07  0.583873E+00  0.266802E+07  0.170387E-07 *******    2.90 *******  251.06 *******    0.00
   -3.37  -90.68  -86.43   75.77    0.19 -127.57
    0.30  -84.11 -266.26  -91.19    0.91   26.41
 0.4600  0.272148E+06  0.236674E+00  0.274141E+07  0.421445E+01  0.288363E+07  0.160860E-07 *******    3.63 *******  176.88 *******    0.00
   -3.42  -82.41  -85.84  -90.02    0.11   82.51
    0.28   84.11 -265.67  -96.28    0.89 -125.78
 0.4800  0.296216E+06  0.336074E+00  0.268404E+07  0.305618E+01  0.310207E+07  0.272522E-08 *******    2.49 *******   86.28 *******    0.00
   -3.49  -89.01  -85.21  -94.58    0.03  -70.02
    0.24  -89.25 -265.04 -256.13    0.86   66.21
 0.5000  0.320710E+06  0.173171E-01  0.262608E+07  0.268992E+01  0.332159E+07  0.178230E-07 *******    0.18 *******  220.74 *******    0.00
   -3.58 -141.27  -84.53   88.58   -0.06   87.94
    0.20  -21.83 -264.37   85.68    0.82  -81.92
 0.5200  0.345109E+06  0.298645E+00  0.256771E+07  0.892022E+00  0.354607E+07  0.340492E-07 *******    4.67 *******  190.68 *******    0.00
   -3.68  -92.69  -83.79 -266.55   -0.18  -79.96
    0.15 -267.10 -263.60  -85.85    0.76  -50.96
 0.5400  0.372039E+06  0.192147E+00  0.250923E+07  0.480144E+01  0.376918E+07  0.265320E-07 *******    1.84 *******   41.18 *******    0.00
   -3.82  -93.06  -82.97 -263.74   -0.31 -244.67
    0.10  -94.27 -262.80   40.49    0.73  -20.62
 0.5600  0.399573E+06  0.155585E+00  0.245076E+07  0.256892E+01  0.399017E+07  0.390808E-07 *******    2.15 *******  119.27 *******    0.00
   -3.94   87.10  -82.08 -252.42   -0.44   82.73
    0.05  -94.55 -261.90  -88.37    0.68 -261.22
 0.5800  0.427301E+06  0.392487E-01  0.239254E+07  0.117014E+01  0.421009E+07  0.365242E-07 *******    2.20 *******  126.63 *******    0.00
   -4.06  -51.41  -81.14  -79.99   -0.59  -73.62
   -0.02   84.25 -261.01  -79.08    0.60  -93.75
 0.6000  0.454657E+06  0.117652E+00  0.233448E+07  0.451086E+01  0.442973E+07  0.269582E-07 *******    2.73 *******   19.48 *******    0.00
   -4.16   72.67  -80.15  -94.33   -0.75   79.93
   -0.10  -86.54 -259.96 -236.39    0.52   -7.88
 0.6200  0.483922E+06  0.159937E+00  0.227680E+07  0.247048E+01  0.464266E+07  0.650781E-08 *******    1.91 *******  143.63 *******    0.00
   -4.32  -70.90  -79.09   80.45   -0.89   47.17
   -0.15   75.84 -258.91 -239.44    0.48  -52.09
 0.6400  0.513563E+06  0.301965E+00  0.221953E+07  0.464728E+01  0.484865E+07  0.374201E-07 *******    0.73 *******  366.63 *******    0.00
   -4.49  -94.16  -77.98  -79.25   -1.05  -97.06
   -0.21 -247.03 -257.75 -267.53    0.43 -182.07
 0.6600  0.544054E+06  0.762294E-01  0.216293E+07  0.105010E+02  0.504691E+07  0.188596E-07 *******    1.00 *******   33.16 *******    0.00
   -4.69 -158.37  -76.80  -85.17   -1.21  -52.78
   -0.27  -54.79 -256.60   -9.33    0.38 -249.44
 0.6800  0.571143E+06  0.379028E-01  0.210709E+07  0.526891E+00  0.524417E+07  0.253895E-07 *******    3.64 *******  138.48 *******    0.00
   -4.84  -67.78  -75.55   85.37   -1.41   58.02
   -0.36   88.64 -255.35 -253.23    0.29 -244.89
 0.7000  0.599643E+06  0.839271E-01  0.205200E+07  0.259465E+01  0.543112E+07  0.204427E-07 *******    1.97 *******   88.35 *******    0.00
   -4.99 -106.75  -74.23 -243.35   -1.58 -232.87
   -0.40  -93.68 -253.98 -255.78    0.27   20.34
 0.7200  0.632346E+06  0.169084E+00  0.199796E+07  0.384021E+01  0.559909E+07  0.318444E-08 *******    1.32 *******   25.30 *******    0.00
   -5.13   64.26  -72.84  -97.72   -1.74   71.90
   -0.41  -14.55 -252.63 -148.78    0.27 -212.98
 0.7400  0.664983E+06  0.356002E+00  0.194479E+07  0.158099E+01  0.575323E+07  0.194679E-07 *******    0.37 *******  145.10 *******    0.00
   -5.26 -266.93  -71.41 -266.68   -1.89 -113.81
   -0.42  -76.29 -251.16 -247.49    0.29 -254.75
 0.7600  0.695852E+06  0.334538E+00  0.189271E+07  0.605879E+00  0.589318E+07  0.182152E-07 *******    0.90 *******  120.82 *******    0.00
   -5.39  -88.03  -69.93   79.63   -2.02 -164.81
   -0.42   29.27 -249.71 -250.71    0.31   72.35
 0.7800  0.721393E+06  0.270346E+00  0.184133E+07  0.339515E+01  0.602635E+07  0.127234E-07 *******    0.56 *******   90.08 *******    0.00
   -5.47 -254.75  -68.41 -235.43   -2.15 -237.33
   -0.43 -265.37 -248.16 -127.57    0.30 -110.74
 0.8000  0.723317E+06  0.983912E-01  0.178839E+07  0.512855E+01  0.619040E+07  0.187440E-07 *******    0.94 *******  149.80 *******    0.00
   -5.93   68.98  -66.90   83.21   -2.22  -83.58
   -0.24   88.86 -246.57   89.91    0.54 -111.71
 0.8200  0.751468E+06  0.349990E+00  0.173830E+07  0.259991E+01  0.628973E+07  0.175648E-07 *******    0.97 *******  119.76 *******    0.00
   -6.05   70.16  -65.25  -75.63   -2.27 -109.76
   -0.03 -246.96 -244.94  -72.88    0.80 -261.63
 0.8400  0.780812E+06  0.454903E-01  0.168886E+07  0.195888E+01  0.637034E+07  0.166132E-07 *******    1.64 *******  271.94 *******    0.00
   -6.10 -261.47  -63.54  -49.69   -2.28    8.87
    0.21  -94.61 -243.17 -254.35    1.09 -197.59
 0.8600  0.808485E+06  0.310999E+00  0.164101E+07  0.184478E+01  0.643327E+07  0.179495E-07 *******    0.18 *******   34.64 *******    0.00
   -6.08 -150.06  -61.75 -254.89   -2.25 -210.39
    0.51 -180.37 -241.42   47.07    1.45   37.27
 0.8800  0.834717E+06  0.135489E+00  0.159426E+07  0.402587E+00  0.647868E+07  0.138627E-07 *******    1.83 *******  126.43 *******    0.00
   -6.01 -250.84  -59.90 -132.31   -2.18  -82.28
    0.85  -87.52 -239.62  -98.63    1.85  -27.70
 0.9000  0.855881E+06  0.195996E+00  0.154833E+07  0.339705E+01  0.651475E+07  0.181668E-07 *******    0.69 *******  130.51 *******    0.00
   -5.84   19.83  -58.00  -78.44   -2.07   88.53
    1.18   73.98 -237.70  -62.50    2.22 -142.66
 0.9200  0.875655E+06  0.107862E+00  0.150355E+07  0.656353E+01  0.653662E+07  0.155775E-07 *******    1.07 *******  101.50 *******    0.00
   -5.61 -157.65  -56.05   77.51   -1.90 -106.95
    1.59 -104.25 -235.65 -115.86    2.68 -129.78
 0.9400  0.902627E+06  0.195602E+00  0.145993E+07  0.145924E+01  0.652652E+07  0.191647E-07 *******    1.37 *******   56.22 *******    0.00
   -5.37   53.57  -54.03 -154.94   -1.63  -52.16
    2.31  -15.68 -233.68 -105.87    3.54  -80.00
 0.9600  0.926122E+06  0.727910E-01  0.141704E+07  0.812374E+01  0.650316E+07  0.780591E-08 *******    1.14 *******   77.88 *******    0.00
   -5.05   17.76  -51.96   82.13   -1.29   17.35
    3.13  -91.40 -231.69 -239.29    4.51  -77.63
 0.9800  0.951472E+06  0.552821E-01  0.137534E+07  0.430062E+01  0.645740E+07  0.171526E-07 *******    0.96 *******  202.17 *******    0.00
   -4.60   -7.37  -49.83  -66.24   -0.87 -183.89
    4.08   76.82 -229.48  -88.04    5.65 -239.58
 1.0000  0.975710E+06  0.454104E+00  0.133472E+07  0.227533E+01  0.639344E+07  0.269812E-07 *******    1.19 *******  497.05 *******    0.00
   -4.06 -262.34  -47.64 -268.18   -0.36 -208.33
    5.17  -62.93 -227.36  -86.33    6.98  -26.03
 1.0200  0.994310E+06  0.102855E+00  0.129494E+07  0.159414E+01  0.632266E+07  0.303442E-07 *******    3.53 *******  531.93 *******    0.00
   -3.43 -256.32  -45.39 -203.63    0.23   11.96
    6.30  -96.15 -225.18  -85.84    8.35  -82.42
 1.0400  0.100055E+07  0.416021E+00  0.125550E+07  0.405638E+01  0.625666E+07  0.225088E-07 *******    3.16 *******  173.18 *******    0.00
   -2.72   72.05  -43.10 -138.16    0.88 -219.12
    7.34  -93.06 -222.82 -113.47    9.55 -172.30
 1.0600  0.100488E+07  0.112988E+00  0.121693E+07  0.262042E+01  0.618067E+07  0.727509E-07 *******    2.56 *******  162.40 *******    0.00
   -1.95  -95.16  -40.75 -157.56    1.64 -176.88
    8.68  -90.14 -220.39 -189.48   11.13   -5.40
 1.0800  0.101997E+07  0.250845E+00  0.117982E+07  0.126384E+01  0.607622E+07  0.212795E-07 *******    4.15 *******   68.80 *******    0.00
   -1.12  -90.74  -38.32  -62.66    2.55  -17.84
   10.90  -94.05 -218.01 -121.75   14.00 -138.74
 1.1000  0.104634E+07  0.109823E+00  0.114398E+07  0.953806E+00  0.593804E+07  0.417020E-07 *******    2.85 *******   88.40 *******    0.00
   -0.06 -127.52  -35.82  -92.28    3.57   23.70
   13.76  -90.66 -215.64   77.38   18.12   -3.50
 1.1200  0.107931E+07  0.946936E-01  0.110858E+07  0.628212E+00  0.577833E+07  0.516218E-07 *******    2.83 *******   71.08 *******    0.00
    1.21 -119.86  -33.28  -76.03    4.67 -199.50
   17.54  -97.16 -213.04   73.98   24.55   -4.68
 1.1400  0.111997E+07  0.844445E-01  0.107549E+07  0.810394E+01  0.560119E+07  0.380028E-07 *******    2.86 *******  232.77 *******    0.00
    2.67   64.16  -30.68 -251.43    5.83 -142.22
   23.80 -101.56 -210.47   69.21   39.07 -154.52
 1.1600  0.117650E+07  0.123958E+00  0.104297E+07  0.136489E+01  0.539056E+07  0.300415E-07 *******    1.76 *******   93.83 *******    0.00
    4.53 -113.43  -27.98  -84.22    7.02   19.00
   40.79  -70.46 -207.91 -249.66 -249.48 -188.34
 1.1800  0.121216E+07  0.610882E-01  0.101142E+07  0.251342E+01  0.521043E+07  0.176168E-07 *******    2.03 *******  127.71 *******    0.00
    6.32  -79.27  -25.27 -106.93    8.29  -60.72
 -248.98  -86.52 -205.29   79.47 -196.55   -0.11
 1.2000  0.121668E+07  0.489316E-01  0.978701E+06  0.340442E+01  0.507311E+07  0.327663E-07 *******    1.37 *******  144.50 *******    0.00
    8.11 -261.37  -22.52 -213.45    9.65  -19.08
 -202.32  -63.41 -202.51 -238.78 -184.71    7.59
 1.2200  0.122478E+07  0.125410E+00  0.947291E+06  0.339471E+00  0.492470E+07  0.360519E-07 *******    1.50 *******  195.89 *******    0.00
    9.93   85.28  -19.72   23.91   11.14 -125.54
 -182.48  -68.52 -199.74 -242.37 -177.16   -6.85
 1.2400  0.126687E+07  0.355244E-01  0.917088E+06  0.953361E+00  0.471886E+07  0.493359E-08 *******    1.84 *******  165.35 *******    0.00
   11.81 -138.52  -16.85 -130.66   12.86 -250.71
 -173.27 -102.74 -196.91 -229.91 -171.94 -110.12
 1.2600  0.133428E+07  0.271753E+00  0.887973E+06  0.915408E+00  0.447114E+07  0.377538E-07 *******    1.44 *******  100.51 *******    0.00
   13.79 -265.35  -13.91 -157.15   14.72  -92.47
 -168.67  -49.03 -194.09   72.64 -168.28   18.40
 1.2800  0.142949E+07  0.144890E+00  0.859941E+06  0.496570E+01  0.417589E+07  0.372209E-07 *******    2.21 *******   79.85 *******    0.00
   16.15  -86.05  -10.96  -80.27   16.56   43.48
 -164.37 -102.37 -191.22 -225.14 -164.37 -218.28
 1.3000  0.154286E+07  0.572418E-01  0.829744E+06  0.269031E+01  0.385332E+07  0.448856E-07 *******    1.59 *******  145.63 *******    0.00
   18.91 -265.44   -7.87 -102.44   18.33   11.37
 -160.11  -52.30 -188.46   87.55 -160.27   33.80
 1.3200  0.173621E+07  0.169677E+00  0.804625E+06  0.176301E+01  0.341007E+07  0.125383E-07 *******    1.56 *******   39.55 *******    0.00
   22.14   13.85   -4.74  -97.36   19.80 -158.20
 -155.96  -85.60 -185.58   80.99 -156.16 -182.67
 1.3400  0.204160E+07  0.161889E+00  0.779491E+06  0.701971E+00  0.280310E+07  0.729489E-07 *******    1.96 *******   87.27 *******    0.00
   25.86   48.32   -1.39  -80.18   20.50   -2.56
 -151.74 -108.79 -182.46   -3.05 -151.93    9.86
 1.3600  0.239792E+07  0.315957E+00  0.755844E+06  0.114691E+01  0.213706E+07  0.110145E-06 *******    1.87 *******   75.22 *******    0.00
   30.23   23.96    1.93   86.89   18.56 -179.03
 -146.97  -84.67 -179.37 -219.03 -147.15  -76.85
 1.3800  0.266918E+07  0.251227E+00  0.721610E+06  0.460182E+00  0.163331E+07  0.595705E-07 *******    2.70 *******   46.02 *******    0.00
   34.47 -139.70    5.17  -23.86   13.75 -154.54
 -142.42 -105.73 -176.81 -137.45 -142.58 -196.68
 1.4000  0.303241E+07  0.485632E+00  0.692413E+06  0.229599E+00  0.110720E+07  0.615682E-07 *******    2.76 *******   84.67 *******    0.00
   39.35 -234.55    8.82 -159.53   -3.23  -68.48
 -137.21  -95.62 -174.38 -237.76 -137.38   20.01
 1.4200  0.455422E+07  0.174489E+00  0.657683E+06  0.124841E+01  0.179261E+07  0.241498E-06 *******    0.99 *******  267.94 *******    0.00
   44.26  -63.30   12.33 -165.53 -110.29  -95.75
 -133.75 -125.47 -173.17   -5.11 -133.81   -9.28
 1.4400  0.467652E+08  0.608299E+01  0.435600E+06  0.101368E+01  0.644028E+08  0.313533E-05 *******    9.75 ******* 1101.45 *******    0.00
   48.24  -89.59   38.07 -145.71 -135.13  -33.19
 -132.68   42.89 -203.61 -110.38 -132.61   64.56
 1.4600  0.383276E+07  0.668936E+00  0.659616E+06  0.218670E+01  0.106445E+08  0.270835E-06 *******    1.92 *******  131.04 *******    0.00
 -131.96  -88.66   16.65   74.42   40.04   60.66
   44.73 -118.97 -160.00   32.93   44.87  -55.42
 1.4800  0.193490E+07  0.807892E-01  0.627841E+06  0.388761E+00  0.767261E+07  0.173714E-06 *******    1.64 *******   93.91 *******    0.00
 -126.79   13.43   20.73   42.80   42.47 -224.08
   47.81  -83.99 -157.32   86.61   47.99  -13.26
 1.5000  0.123574E+07  0.566134E-01  0.606362E+06  0.452769E+01  0.649139E+07  0.544371E-07 *******    0.91 *******   57.16 *******    0.00
 -121.74  -80.71   24.37   81.75   45.11 -163.35
   50.74  -73.59 -152.22   79.00   50.94   59.71
 1.5200  0.856946E+06  0.204839E+00  0.581140E+06  0.294108E+01  0.579127E+07  0.863579E-07 *******    0.56 *******   39.54 *******    0.00
 -115.27   14.88   28.01   59.43   48.11 -159.32
   54.12  -98.21 -149.73   88.50   54.36 -174.04
 1.5400  0.619055E+06  0.114493E+00  0.558179E+06  0.974704E+00  0.528661E+07  0.756828E-07 *******    0.65 *******   50.06 *******    0.00
 -106.47 -178.89   31.72  -99.40   51.36  -91.06
   58.26  -86.09 -147.27   89.50   58.54  -16.14
 1.5600  0.506443E+06  0.279369E-01  0.535843E+06  0.592343E+00  0.497395E+07  0.167282E-07 *******    1.03 *******   44.12 *******    0.00
  -99.40  -28.34   35.46  -28.49   54.53 -124.80
   61.81  -94.12 -144.40   86.01   62.10 -145.93
 1.5800  0.457007E+06  0.841637E-01  0.520164E+06  0.527397E+00  0.476088E+07  0.518627E-07 *******    0.23 *******  141.82 *******    0.00
  -94.25 -180.95   39.24   30.44   57.80 -244.47
   65.13  -95.57 -140.80 -269.61   65.45  -84.19
 1.6000  0.453630E+06  0.961975E-01  0.507778E+06  0.746856E+00  0.462230E+07  0.447526E-07 *******    0.93 *******   84.91 *******    0.00
  -91.29 -180.64   43.08 -194.07   61.23 -214.19
   68.56  -89.66 -135.93   86.51   68.87 -124.77
 1.6200  0.443950E+06  0.280985E-01  0.492862E+06  0.348010E+00  0.447147E+07  0.767540E-07 *******    0.84 *******   78.33 *******    0.00
  -87.66 -130.31   46.86 -136.36   64.67 -242.35
   72.26  -85.93 -131.15   85.84   72.54   13.91
 1.6400  0.409518E+06  0.483911E-01  0.475998E+06  0.170241E+01  0.426912E+07  0.526311E-07 *******    0.50 *******   73.50 *******    0.00
  -78.29 -212.59   51.11 -251.75   68.62  -80.58
   77.45  -85.64 -125.81   89.57   77.77 -102.07
 1.6600  0.378164E+06  0.155659E+00  0.459060E+06  0.138758E+01  0.408347E+07  0.332459E-07 *******    0.68 *******   55.32 *******    0.00
  -68.37    3.70   55.13  -72.67   72.52 -263.97
   82.62  -71.46 -122.69 -266.31   82.96  -67.47
 1.6800  0.336603E+06  0.167433E-01  0.443921E+06  0.201545E+01  0.392072E+07  0.510897E-07 *******    0.76 *******   85.24 *******    0.00
  -64.70 -171.77   59.28 -258.58   75.72  -83.46
   85.14  -88.09 -119.50   86.62   85.49 -224.80
 1.7000  0.297236E+06  0.512593E-01  0.426130E+06  0.549998E+00  0.376028E+07  0.626591E-07 *******    0.42 *******   24.99 *******    0.00
  -61.23 -196.23   63.35 -191.70   78.99   72.04
   87.66  -70.13 -116.46   89.37   87.98  -81.53
 1.7200  0.262223E+06  0.257902E-01  0.411791E+06  0.937936E+00  0.361329E+07  0.566501E-07 *******    0.11 *******   42.74 *******    0.00
  -58.52  -92.92   66.88   53.37   82.41 -260.54
 -269.57  -36.66 -111.31   88.30 -269.29   87.75
 1.7400  0.242883E+06  0.635389E-01  0.394716E+06  0.805428E+00  0.347596E+07  0.523222E-08 *******    0.57 *******   29.45 *******    0.00
  -52.71 -205.26   71.08 -117.82   86.28 -122.28
 -265.73  -88.11 -107.23 -258.58 -265.45  -75.99
 1.7600  0.228754E+06  0.102017E+00  0.377654E+06  0.161371E+01  0.334214E+07  0.228186E-07 *******    0.53 *******    4.14 *******    0.00
  -46.59 -269.92   75.39 -265.59 -269.74  -81.79
 -261.83  -96.61 -103.15 -204.51 -261.53   82.16
 1.7800  0.224347E+06  0.915363E-01  0.360383E+06  0.123463E+01  0.321656E+07  0.576071E-07 *******    0.69 *******    8.48 *******    0.00
  -39.43 -190.26   79.64 -254.36 -265.56 -256.92
 -256.96  -94.94 -100.56   65.65 -256.66  -89.84
 1.8000  0.228902E+06  0.859362E-01  0.342895E+06  0.376207E+00  0.311784E+07  0.969259E-08 *******    0.25 *******   22.05 *******    0.00
  -36.08 -102.91   84.26   83.66 -261.49 -204.10
 -252.76 -101.07  -96.84 -259.46 -252.46    9.88
 1.8200  0.238653E+06  0.230436E-02  0.330396E+06  0.708150E+00  0.302772E+07  0.131812E-07 *******    0.33 *******   14.24 *******    0.00
  -35.31 -146.55   88.79 -263.01 -257.32 -215.66
 -248.95  -86.67  -92.38   78.53 -248.65  -91.70
 1.8400  0.252402E+06  0.346475E-01  0.323505E+06  0.709718E+00  0.295166E+07  0.927336E-07 *******    0.15 *******   11.05 *******    0.00
  -36.14  -94.47 -267.43   71.41 -252.97   85.39
 -244.90  -90.80  -86.86 -138.77 -244.63 -183.22
 1.8600  0.267045E+06  0.761052E-01  0.311064E+06  0.910587E+00  0.286645E+07  0.605592E-07 *******    0.33 *******   15.00 *******    0.00
  -34.55   58.66 -262.91   85.37 -248.58  -79.81
 -240.34  -92.33  -82.93 -203.46 -240.13   41.59
 1.8800  0.282274E+06  0.219285E-01  0.301161E+06  0.153123E+00  0.277164E+07  0.684175E-07 *******    0.20 *******   35.77 *******    0.00
  -30.30   86.55 -258.42 -130.10 -243.79  -46.03
 -234.69 -178.80  -76.56   83.36 -234.52 -236.71
 1.9000  0.333890E+06  0.315030E-01  0.293566E+06  0.418977E+00  0.272562E+07  0.365366E-07 *******    0.03 *******   26.35 *******    0.00
  -25.56 -253.81 -253.45  -98.21 -238.42   67.52
 -228.30  -91.08  -70.09 -129.37 -228.13   21.48
 1.9200  0.435476E+06  0.805318E-01  0.286514E+06  0.288896E+00  0.276609E+07  0.480378E-07 *******    0.26 *******   18.61 *******    0.00
  -23.94 -192.46 -248.11   63.23 -233.17 -260.51
 -222.72 -126.17  -64.89 -256.10 -222.56 -222.68
 1.9400  0.539496E+06  0.753563E-01  0.277404E+06  0.167889E+00  0.285789E+07  0.167642E-07 *******    0.44 *******    4.40 *******    0.00
  -30.15  -76.43 -244.49 -120.24 -229.56 -179.60
 -222.27 -242.01  -63.57   51.10 -222.12  -23.00
 1.9600  0.620994E+06  0.786478E-01  0.263083E+06  0.212578E+00  0.289969E+07  0.769134E-07 *******    0.27 *******   10.80 *******    0.00
  -33.88  -49.73 -240.72 -159.77 -226.27   76.34
 -221.86  -83.75  -62.04   35.46 -221.72   33.99
 1.9800  0.713134E+06  0.159455E+00  0.247397E+06  0.111171E+00  0.295258E+07  0.526271E-07 *******    0.16 *******   22.65 *******    0.00
  -39.43  -99.17 -239.53 -251.53 -223.88 -169.16
 -222.46   35.50  -64.11 -208.11 -222.41  -85.71
 2.0000  0.876670E+06  0.448410E-01  0.233935E+06  0.335273E+00  0.306875E+07  0.929925E-07 *******    0.20 *******    7.50 *******    0.00
  -37.47  -56.27 -236.89   36.72 -219.71   60.61
 -218.92 -159.12  -63.48   46.65 -218.92 -206.13
