VARIABLES="w (rad/s)"
"abs(F   1   1)" "angle(F   1   1)"
"abs(F   1   2)" "angle(F   1   2)"
"abs(F   1   3)" "angle(F   1   3)"
"abs(F   1   4)" "angle(F   1   4)"
"abs(F   1   5)" "angle(F   1   5)"
"abs(F   1   6)" "angle(F   1   6)"
"abs(F   2   7)" "angle(F   2   7)"
"abs(F   2   8)" "angle(F   2   8)"
"abs(F   2   9)" "angle(F   2   9)"
"abs(F   2  10)" "angle(F   2  10)"
"abs(F   2  11)" "angle(F   2  11)"
"abs(F   2  12)" "angle(F   2  12)"
Zone t="FKforce - beta =   0.000",I=   100,F=POINT
  0.2000000E-01  0.3129697E+04 -0.1570773E+01  0.2675018E+00 -0.1687858E-04  0.3483857E+07  0.5474620E-07  0.6565454E+01  0.3141585E+01  0.3912499E+05 -0.1584487E+01  0.9366322E-09 -0.3035064E+01  0.2878172E+05 -0.1571010E+01  0.3850952E+01 -0.3141541E+01  0.3305913E+06 -0.1552664E-07  0.9594131E+02  0.3141574E+01  0.8029404E+06 -0.1570760E+01  0.8642739E-06 -0.3137686E+01
  0.4000000E-01  0.6299606E+04 -0.1570791E+01  0.4052734E+00 -0.1138710E-03  0.3482770E+07  0.1108750E-06  0.9945539E+01 -0.1362622E-03  0.7873692E+05 -0.1577578E+01  0.2002349E-07  0.2271072E-02  0.5755784E+05 -0.1570838E+01  0.8437469E+01  0.3712986E-04  0.3226684E+06 -0.3033706E-07  0.4380329E+03  0.3141550E+01  0.1612136E+07 -0.1570873E+01  0.1530614E-06  0.6512310E-01
  0.6000000E-01  0.9551902E+04 -0.1570783E+01  0.4357148E+00 -0.3141122E+01  0.3480963E+07  0.1693265E-06  0.6823624E+01  0.1282195E-04  0.1193589E+06 -0.1575271E+01  0.2980243E-07 -0.2685540E-02  0.8632805E+05 -0.1570654E+01  0.3285797E+01  0.3141459E+01  0.3095406E+06 -0.4477532E-07  0.3777202E+03 -0.2338404E-04  0.2434171E+07 -0.1570745E+01  0.1367369E-05 -0.1656014E-01
  0.8000000E-01  0.1293270E+05 -0.1570782E+01  0.4067536E+00  0.4256914E-03  0.3478418E+07  0.2265234E-06  0.1336201E+01 -0.1898336E-02  0.1615550E+06 -0.1574120E+01  0.4192831E-08  0.2993897E-01  0.1151009E+06 -0.1570770E+01  0.1801581E+02 -0.8694642E-05  0.2913302E+06 -0.5866818E-07  0.6129973E+03 -0.5332062E-04  0.3276294E+07 -0.1570757E+01  0.4302716E-06 -0.1589555E-02
  0.9999999E-01  0.1649439E+05 -0.1570796E+01  0.3170776E+00 -0.3141419E+01  0.3475147E+07  0.2911880E-06  0.1272933E+01 -0.3140365E+01  0.2059662E+06 -0.1573381E+01  0.3399331E-07  0.1391266E-02  0.1439018E+06 -0.1570784E+01  0.2861710E+01  0.3141358E+01  0.2682256E+06 -0.7004699E-07  0.3321827E+03  0.8386181E-05  0.4146762E+07 -0.1570879E+01  0.2939761E-05  0.3123014E+01
  0.1200000E+00  0.2029792E+05 -0.1570802E+01  0.6279450E+00  0.3945832E-03  0.3471136E+07  0.3565806E-06  0.3200634E+01  0.6726076E-04  0.2533401E+06 -0.1572895E+01  0.1434840E-08 -0.2911373E+01  0.1727758E+06 -0.1570795E+01  0.1731609E+02 -0.3141550E+01  0.2404989E+06 -0.8415496E-07  0.5552312E+02  0.3141568E+01  0.5055188E+07 -0.1570816E+01  0.6488320E-07 -0.5331114E+00
  0.1400000E+00  0.2441531E+05 -0.1570794E+01  0.1383896E+00  0.3141590E+01  0.3466387E+07  0.4283175E-06  0.9183657E+00 -0.7096662E-02  0.3045587E+06 -0.1572553E+01  0.1257299E-07 -0.3136963E+01  0.2017928E+06 -0.1570858E+01  0.1181427E+02  0.2998831E-04  0.2085333E+06 -0.8868700E-07  0.2922929E+03 -0.3141551E+01  0.6012832E+07 -0.1570818E+01  0.6092526E-06 -0.3118135E+01
  0.1600000E+00  0.2893174E+05 -0.1570790E+01  0.8752317E-02 -0.3123695E+01  0.3460892E+07  0.5102777E-06  0.1384343E+00 -0.8182291E-02  0.3606627E+06 -0.1572269E+01  0.9801771E-09 -0.2824537E+01  0.2310448E+06 -0.1570775E+01  0.3571213E+01 -0.3141156E+01  0.1728530E+06 -0.8433194E-07  0.4809254E+03 -0.1406943E-04  0.7032684E+07 -0.1570783E+01  0.2131069E-06 -0.3056818E+01
  0.1800000E+00  0.3394542E+05 -0.1570796E+01  0.6156166E-01 -0.3140049E+01  0.3454636E+07  0.5992301E-06  0.5235286E+01  0.7161503E-03  0.4228536E+06 -0.1572051E+01  0.1025354E-07 -0.3099714E+01  0.2606390E+06 -0.1570798E+01  0.1011920E+02  0.1424970E-03  0.1341628E+06 -0.5239556E-07  0.7017169E+03 -0.5527106E-04  0.8129109E+07 -0.1570781E+01  0.7637576E-06 -0.3127760E+01
  0.2000000E+00  0.3956476E+05 -0.1570796E+01  0.1248629E+00 -0.1985822E-02  0.3447612E+07  0.6992349E-06  0.1368323E+01  0.3139711E+01  0.4924512E+06 -0.1571871E+01  0.9320615E-08  0.3982269E-01  0.2906682E+06 -0.1570812E+01  0.1732726E+02 -0.1084268E-03  0.9337273E+05  0.1027619E-07  0.1923376E+03  0.1838565E-03  0.9316517E+07 -0.1570826E+01  0.2237367E-05 -0.1717150E-01
  0.2200000E+00  0.4589838E+05 -0.1570798E+01  0.6080704E+00 -0.1189995E-03  0.3439795E+07  0.8032646E-06  0.1377650E+01  0.3138443E+01  0.5707732E+06 -0.1571723E+01  0.1164219E-07  0.1062460E-01  0.3211596E+06 -0.1570838E+01  0.1991412E+02 -0.1731200E-04  0.5159562E+05  0.3010452E-06  0.2154105E+03  0.3141516E+01  0.1060681E+08 -0.1570814E+01  0.1678258E-05  0.4179360E-02
  0.2400000E+00  0.5303946E+05 -0.1570795E+01  0.6806743E-01 -0.1283418E-01  0.3431166E+07  0.9427728E-06  0.6837253E+01 -0.3140709E+01  0.6589357E+06 -0.1571594E+01  0.1397178E-07 -0.3124928E+01  0.3520015E+06 -0.1570778E+01  0.8329104E+00  0.3133896E+01  0.1007636E+05  0.3200505E-05  0.5476232E+02  0.1058761E-03  0.1200551E+08 -0.1570806E+01  0.2287362E-05  0.3136160E+01
  0.2600000E+00  0.6104626E+05 -0.1570794E+01  0.1305448E-01 -0.3132150E+01  0.3421699E+07  0.1087015E-05  0.3077184E+01 -0.3140137E+01  0.7576148E+06 -0.1571487E+01  0.4759366E-08 -0.4937343E+00  0.3828749E+06 -0.1570817E+01  0.5345589E+01  0.3141455E+01  0.2995276E+05  0.3141591E+01  0.1608430E+03  0.3141581E+01  0.1350818E+08 -0.1570787E+01  0.1406504E-05 -0.5426117E-01
  0.2800000E+00  0.6993077E+05 -0.1570794E+01  0.3698197E+00  0.6569378E-03  0.3411369E+07  0.1245485E-05  0.1570925E+01 -0.1738293E-02  0.8669076E+06 -0.1571398E+01  0.1073111E-07 -0.3079174E+01  0.4132474E+06 -0.1570772E+01  0.2432938E+00  0.3929646E-03  0.6745607E+05  0.3141592E+01  0.5579993E+03 -0.1280380E-03  0.1509845E+08 -0.1570793E+01  0.3181596E-05  0.3130432E+01
  0.3000000E+00  0.7966295E+05 -0.1570796E+01  0.2017069E+00  0.3138413E+01  0.3400147E+07  0.1413015E-05  0.1624456E+01  0.2155660E-02  0.9863861E+06 -0.1571326E+01  0.3073675E-07 -0.3127389E+01  0.4424545E+06 -0.1570785E+01  0.1665515E+02  0.8189614E-04  0.1017261E+06  0.3141592E+01  0.1275397E+03  0.3140898E+01  0.1675074E+08 -0.1570804E+01  0.3629360E-06 -0.2970353E+01
  0.3200000E+00  0.9018919E+05 -0.1570795E+01  0.1216740E+00  0.2657067E-02  0.3388012E+07  0.1603043E-05  0.1495324E+01  0.3128301E+01  0.1115328E+07 -0.1571262E+01  0.1444665E-07  0.3929428E-01  0.4698278E+06 -0.1570785E+01  0.6749165E+01 -0.3330855E-03  0.1324025E+06  0.3141592E+01  0.1432487E+03 -0.2214637E-03  0.1843540E+08 -0.1570789E+01  0.1375274E-05  0.3053784E+01
  0.3400000E+00  0.1014509E+06 -0.1570795E+01  0.9150241E-01  0.3133380E+01  0.3374942E+07  0.1830010E-05  0.2472013E+01 -0.4221987E-02  0.1252956E+07 -0.1571207E+01  0.9727485E-08 -0.2928897E+00  0.4948178E+06 -0.1570794E+01  0.2968194E+00 -0.3340700E-02  0.1593916E+06  0.3141592E+01  0.5724016E+03  0.3141490E+01  0.2012368E+08 -0.1570805E+01  0.1275783E-06 -0.3057315E+01
  0.3600000E+00  0.1133977E+06 -0.1570795E+01  0.3377839E+00  0.6959501E-03  0.3360908E+07  0.2038834E-05  0.3373189E+01 -0.1964141E-02  0.1398591E+07 -0.1571163E+01  0.2883520E-08  0.2498746E+00  0.5170572E+06 -0.1570820E+01  0.8580353E+01 -0.1887542E-03  0.1827622E+06  0.3141591E+01  0.3211472E+03 -0.3140520E+01  0.2179073E+08 -0.1570780E+01  0.1617975E-05 -0.3059945E+01
  0.3800000E+00  0.1259909E+06 -0.1570795E+01  0.4280986E-01  0.7874994E-02  0.3345889E+07  0.2264300E-05  0.1794404E+01  0.1816836E-02  0.1551703E+07 -0.1571124E+01  0.8853354E-08 -0.3105424E+01  0.5363549E+06 -0.1570793E+01  0.9836755E+00  0.3139352E+01  0.2026684E+06  0.3141591E+01  0.1060039E+03 -0.1808828E-02  0.2341643E+08 -0.1570792E+01  0.1180488E-06  0.4148950E+00
  0.4000000E+00  0.1392003E+06 -0.1570794E+01  0.1872707E+00  0.2008104E-01  0.3329857E+07  0.2501972E-05  0.1415290E+00  0.3257811E+00  0.1711868E+07 -0.1571092E+01  0.2468007E-07 -0.1179245E-02  0.5526758E+06 -0.1570799E+01  0.2116364E+01 -0.3217422E-03  0.2193058E+06  0.3141591E+01  0.9911491E+02 -0.3141421E+01  0.2498467E+08 -0.1570803E+01  0.8983657E-06 -0.2217190E+00
  0.4200000E+00  0.1530018E+06 -0.1570794E+01  0.1550789E-01 -0.3034477E+01  0.3312784E+07  0.2749088E-05  0.2355037E+01  0.1086838E-02  0.1878747E+07 -0.1571064E+01  0.1286323E-07  0.2702232E+01  0.5661025E+06 -0.1570793E+01  0.6998521E+00 -0.3139176E+01  0.2328978E+06  0.3141591E+01  0.3044508E+03  0.3141217E+01  0.2648284E+08 -0.1570794E+01  0.9275505E-07 -0.2977063E+01
  0.4400000E+00  0.1673744E+06 -0.1570794E+01  0.1896364E+00  0.1450856E-02  0.3294644E+07  0.3016144E-05  0.8120682E+00  0.3099979E+01  0.2052028E+07 -0.1571037E+01  0.1491573E-07  0.2544436E+00  0.5767981E+06 -0.1570797E+01  0.3001159E+01 -0.9058792E-03  0.2436851E+06  0.3141591E+01  0.2321688E+03  0.1489775E-04  0.2790146E+08 -0.1570798E+01  0.4700629E-07 -0.2423229E+01
  0.4600000E+00  0.1822973E+06 -0.1570793E+01  0.1917503E+00  0.2708086E-02  0.3275410E+07  0.3344043E-05  0.4203314E+01  0.1672465E-02  0.2231414E+07 -0.1571017E+01  0.1543019E-07 -0.3050933E+01  0.5849765E+06 -0.1570797E+01  0.3748507E+01 -0.3141533E+01  0.2519242E+06  0.3141591E+01  0.2006607E+03  0.1550159E-02  0.2923310E+08 -0.1570794E+01  0.1733061E-06 -0.2817252E+00
  0.4800000E+00  0.1977485E+06 -0.1570793E+01  0.3200292E+00  0.6442718E-02  0.3255049E+07  0.3613349E-05  0.2349421E+01  0.7247338E-02  0.2416600E+07 -0.1570998E+01  0.7400389E-08  0.3366748E+00  0.5908822E+06 -0.1570800E+01  0.2310044E+01 -0.2632776E-02  0.2578793E+06  0.3141591E+01  0.1040103E+03 -0.3139953E+01  0.3047262E+08 -0.1570792E+01  0.3022527E-06  0.3109571E+01
  0.5000000E+00  0.2137052E+06 -0.1570793E+01  0.6682686E-01 -0.5451482E-02  0.3233538E+07  0.3902089E-05  0.7611014E+00 -0.3114602E+01  0.2607280E+07 -0.1570981E+01  0.1536693E-07  0.3137805E+01  0.5947689E+06 -0.1570789E+01  0.3892412E+00  0.3859507E-02  0.2618146E+06  0.3141591E+01  0.2184564E+03  0.3140997E+01  0.3161683E+08 -0.1570801E+01  0.6126325E-06  0.1603065E+00
  0.5200000E+00  0.2301435E+06 -0.1570792E+01  0.3390601E+00 -0.3549635E-02  0.3210843E+07  0.4225903E-05  0.1431260E+01 -0.3115600E+01  0.2803122E+07 -0.1570967E+01  0.2904160E-07 -0.1084439E+00  0.5968922E+06 -0.1570800E+01  0.4568347E+01 -0.3140977E+01  0.2639894E+06  0.3141590E+01  0.2178322E+03  0.4270740E-03  0.3266415E+08 -0.1570800E+01  0.3123454E-06 -0.3992637E+00
  0.5400000E+00  0.2470363E+06 -0.1570792E+01  0.2363645E+00 -0.7048786E-02  0.3186936E+07  0.4557140E-05  0.5002986E+01  0.3134048E+01  0.3003770E+07 -0.1570954E+01  0.2689931E-07  0.2978578E+01  0.5974993E+06 -0.1570807E+01  0.1899946E+01  0.1378444E-02  0.2646500E+06  0.3141590E+01  0.6274506E+01 -0.3105256E+01  0.3361449E+08 -0.1570802E+01  0.6034101E-07  0.2516466E+00
  0.5599999E+00  0.2643552E+06 -0.1570791E+01  0.2015411E+00  0.3113543E+01  0.3161786E+07  0.4904271E-05  0.2781789E+01  0.3133705E+01  0.3208873E+07 -0.1570940E+01  0.3700584E-07 -0.3032846E+01  0.5968125E+06 -0.1570799E+01  0.2237700E+01  0.2255773E-02  0.2640268E+06  0.3141590E+01  0.1490346E+03 -0.2661602E-03  0.3446942E+08 -0.1570799E+01  0.2543677E-06  0.3104513E+01
  0.5800000E+00  0.2820696E+06 -0.1570792E+01  0.6734810E-01 -0.1812627E-01  0.3135370E+07  0.5258643E-05  0.1083815E+01 -0.3162687E-01  0.3418048E+07 -0.1570930E+01  0.3304273E-07 -0.1645695E+00  0.5950428E+06 -0.1570797E+01  0.2301591E+01 -0.3138037E+01  0.2623269E+06  0.3141590E+01  0.1160879E+03  0.6539644E-04  0.3523111E+08 -0.1570797E+01  0.1039208E-06 -0.4423542E+00
  0.6000000E+00  0.3001468E+06 -0.1570791E+01  0.1447745E+00  0.3121375E+01  0.3107661E+07  0.5602139E-05  0.4338377E+01 -0.9182569E-02  0.3630894E+07 -0.1570920E+01  0.2608489E-07 -0.2950762E+01  0.5923771E+06 -0.1570802E+01  0.2787067E+01  0.1682866E-02  0.2597365E+06  0.3141590E+01  0.4015102E+01 -0.3135666E+01  0.3590302E+08 -0.1570797E+01  0.3930239E-07  0.2195625E+00
  0.6200000E+00  0.3185510E+06 -0.1570791E+01  0.1569154E+00  0.4564319E-02  0.3078624E+07  0.5992960E-05  0.2991869E+01 -0.3127535E+01  0.3846989E+07 -0.1570910E+01  0.4197414E-08 -0.3086094E+01  0.5889744E+06 -0.1570796E+01  0.1339022E+01  0.3141314E+01  0.2564188E+06  0.3141590E+01  0.9368890E+02 -0.3140769E+01  0.3648893E+08 -0.1570801E+01  0.1830264E-06 -0.7735917E+00
  0.6400000E+00  0.3372447E+06 -0.1570791E+01  0.3003867E+00 -0.3797096E-02  0.3048248E+07  0.6395976E-05  0.4668457E+01 -0.8255994E-03  0.4065890E+07 -0.1570902E+01  0.3169839E-07 -0.4592357E-01  0.5849752E+06 -0.1570802E+01  0.7667837E+00  0.3133793E+01  0.2525129E+06  0.3141589E+01  0.3500506E+03 -0.3141344E+01  0.3699349E+08 -0.1570800E+01  0.1866479E-06  0.1464722E+01
  0.6600000E+00  0.3561875E+06 -0.1570790E+01  0.2088515E-01  0.9544308E-01  0.3016503E+07  0.6753639E-05  0.1063580E+02  0.4443682E-02  0.4287155E+07 -0.1570895E+01  0.1695832E-07  0.1516055E+00  0.5804978E+06 -0.1570800E+01  0.8244885E+00 -0.1497258E-02  0.2481381E+06  0.3141589E+01  0.6386793E+02  0.6506313E-02  0.3742168E+08 -0.1570798E+01  0.3834859E-06  0.3052743E+01
  0.6800000E+00  0.3753364E+06 -0.1570790E+01  0.9259584E-01 -0.3567412E-01  0.2983362E+07  0.7183587E-05  0.1669815E+01 -0.3131475E+01  0.4510297E+07 -0.1570887E+01  0.1910497E-07 -0.2427348E+01  0.5756408E+06 -0.1570803E+01  0.3468812E+01  0.3140638E+01  0.2433940E+06  0.3141589E+01  0.8211320E+02 -0.3140850E+01  0.3777831E+08 -0.1570800E+01  0.1856618E-06  0.2850680E+01
  0.7000000E+00  0.3946469E+06 -0.1570789E+01  0.3395110E-01 -0.3137435E+01  0.2948814E+07  0.7631076E-05  0.8841941E+00 -0.3140378E+01  0.4734821E+07 -0.1570881E+01  0.1721215E-07  0.2617413E+01  0.5704874E+06 -0.1570797E+01  0.1854980E+01  0.4650980E-03  0.2383636E+06  0.3141589E+01  0.6211866E+02 -0.3140984E+01  0.3806854E+08 -0.1570800E+01  0.1215801E-06 -0.2186978E+01
  0.7200000E+00  0.4140698E+06 -0.1570789E+01  0.1137666E+00 -0.3132472E+01  0.2912832E+07  0.8081884E-05  0.2705583E+01  0.5103461E-02  0.4960221E+07 -0.1570875E+01  0.4436401E-08 -0.2807395E+01  0.5651041E+06 -0.1570800E+01  0.3158136E+00 -0.1462096E-01  0.2331135E+06  0.3141588E+01  0.3378285E+02  0.7677731E-02  0.3829742E+08 -0.1570797E+01  0.1724741E-06  0.2905848E+01
  0.7399999E+00  0.4335557E+06 -0.1570789E+01  0.3039294E+00  0.3128081E+01  0.2875408E+07  0.8489199E-05  0.3098676E+01  0.3127053E+01  0.5185967E+07 -0.1570869E+01  0.9449203E-08 -0.3587707E+00  0.5595431E+06 -0.1570800E+01  0.6710946E+00 -0.1009184E-03  0.2276998E+06  0.3141588E+01  0.9143960E+02  0.3141094E+01  0.3846990E+08 -0.1570800E+01  0.2168734E-06 -0.3103295E+01
  0.7600000E+00  0.4530510E+06 -0.1570788E+01  0.3504882E+00 -0.1999516E-01  0.2836530E+07  0.8836234E-05  0.2512792E+00 -0.2949679E+01  0.5411517E+07 -0.1570864E+01  0.4061210E-08  0.1094329E+01  0.5538520E+06 -0.1570796E+01  0.6770564E+00 -0.3141583E+01  0.2221656E+06  0.3141588E+01  0.3071942E+02 -0.3137589E+01  0.3859074E+08 -0.1570798E+01  0.7563109E-07 -0.1945122E+01
  0.7800000E+00  0.4724978E+06 -0.1570788E+01  0.2495203E+00  0.3138818E+01  0.2796183E+07  0.9370707E-05  0.1835559E+01  0.3133399E+01  0.5636296E+07 -0.1570859E+01  0.9532560E-08  0.2645170E+01  0.5480646E+06 -0.1570800E+01  0.3257489E+00 -0.3141083E+01  0.2165486E+06  0.3141588E+01  0.3946373E+02 -0.1151723E-02  0.3866456E+08 -0.1570799E+01  0.1880442E-06  0.6380662E-01
  0.8000000E+00  0.4918406E+06 -0.1570788E+01  0.1327177E+00 -0.3102075E+01  0.2754360E+07  0.9835658E-05  0.5708790E+01  0.3133135E+01  0.5859750E+07 -0.1570854E+01  0.2747500E-07 -0.8474373E-02  0.5422071E+06 -0.1570801E+01  0.8337693E+00  0.3139635E+01  0.2108767E+06  0.3141588E+01  0.1497943E+03 -0.3141126E+01  0.3869534E+08 -0.1570798E+01  0.6553308E-07 -0.9503722E+00
  0.8199999E+00  0.5110166E+06 -0.1570787E+01  0.2599187E+00  0.3139670E+01  0.2711054E+07  0.1039599E-04  0.2097991E+01 -0.1585523E-01  0.6081256E+07 -0.1570850E+01  0.1265505E-07  0.4883339E+00  0.5363047E+06 -0.1570801E+01  0.9053583E+00  0.3138594E+01  0.2051735E+06  0.3141587E+01  0.8445129E+02 -0.1292105E-02  0.3868740E+08 -0.1570799E+01  0.2140754E-06  0.2884061E+01
  0.8400000E+00  0.5299612E+06 -0.1570787E+01  0.9093708E-01 -0.3134440E+01  0.2666273E+07  0.1080395E-04  0.1693065E+01  0.2532030E-01  0.6300240E+07 -0.1570845E+01  0.6108200E-08  0.1338110E+00  0.5303760E+06 -0.1570800E+01  0.1542122E+01  0.9177513E-04  0.1994584E+06  0.3141587E+01  0.1882668E+03 -0.3141483E+01  0.3864440E+08 -0.1570799E+01  0.4752554E-07 -0.2097703E+01
  0.8600000E+00  0.5486102E+06 -0.1570786E+01  0.1042783E+00  0.1197994E+00  0.2620012E+07  0.1132209E-04  0.6702452E+00  0.2757025E-01  0.6516067E+07 -0.1570842E+01  0.1034526E-07  0.2809166E+01  0.5244326E+06 -0.1570800E+01  0.1041854E+00  0.1175620E-01  0.1937474E+06  0.3141587E+01  0.8827520E+00  0.9176584E-01  0.3856954E+08 -0.1570801E+01  0.1019643E-06 -0.2921450E+01
  0.8800000E+00  0.5668938E+06 -0.1570786E+01  0.9910442E-01  0.3130391E+01  0.2572281E+07  0.1176756E-04  0.7606777E+00  0.3125730E+01  0.6728106E+07 -0.1570837E+01  0.1773185E-07 -0.2386093E+00  0.5184920E+06 -0.1570801E+01  0.2518213E+01 -0.8493414E-03  0.1880528E+06  0.3141587E+01  0.1051535E+03  0.6216405E-03  0.3846634E+08 -0.1570801E+01  0.4970885E-07  0.1018428E+01
  0.9000000E+00  0.5847413E+06 -0.1570785E+01  0.7859742E-01  0.3097703E+01  0.2523094E+07  0.1231272E-04  0.2495414E+01 -0.1440795E-01  0.6935726E+07 -0.1570834E+01  0.1782333E-07  0.2560836E+01  0.5125601E+06 -0.1570802E+01  0.5971946E+00 -0.3136718E+01  0.1823863E+06  0.3141586E+01  0.1369270E+03  0.2705814E-03  0.3833760E+08 -0.1570801E+01  0.1225085E-06 -0.8991172E-01
  0.9200000E+00  0.6020799E+06 -0.1570785E+01  0.7896151E-02 -0.4247483E+00  0.2472460E+07  0.1286235E-04  0.5435965E+01 -0.3126820E+01  0.7138279E+07 -0.1570830E+01  0.2313855E-07 -0.1668029E+00  0.5066485E+06 -0.1570800E+01  0.7765278E+00 -0.2536773E-02  0.1767582E+06  0.3141586E+01  0.6361776E+02 -0.3305436E-02  0.3818606E+08 -0.1570800E+01  0.1189126E-06  0.5802841E+00
  0.9400000E+00  0.6188361E+06 -0.1570785E+01  0.8756360E-01  0.3136713E+01  0.2420401E+07  0.1337952E-04  0.3274227E+01  0.6580788E-02  0.7335114E+07 -0.1570827E+01  0.1674156E-07 -0.6323750E+00  0.5007635E+06 -0.1570801E+01  0.3495926E+00 -0.6195866E-02  0.1711754E+06  0.3141586E+01  0.3956396E+02  0.1985140E-02  0.3801428E+08 -0.1570802E+01  0.1397947E-06 -0.2852601E+00
  0.9600000E+00  0.6349314E+06 -0.1570784E+01  0.6626199E-02 -0.7888584E+00  0.2366944E+07  0.1383061E-04  0.8316344E+01  0.3123542E+01  0.7525572E+07 -0.1570824E+01  0.5122274E-08  0.3141593E+01  0.4949129E+06 -0.1570801E+01  0.7108977E+00  0.2052211E-02  0.1656474E+06  0.3141586E+01  0.6883270E+02 -0.3140771E+01  0.3782428E+08 -0.1570802E+01  0.1370634E-06 -0.6389084E+00
  0.9800000E+00  0.6502886E+06 -0.1570784E+01  0.1439474E+00 -0.3170006E-01  0.2312115E+07  0.1437737E-04  0.4767928E+01 -0.1097494E-01  0.7709001E+07 -0.1570821E+01  0.1431908E-07  0.1570796E+01  0.4891009E+06 -0.1570802E+01  0.1151528E+01  0.3140867E+01  0.1601784E+06  0.3141585E+01  0.2412280E+03 -0.3783737E-03  0.3761826E+08 -0.1570801E+01  0.3896745E-07  0.2850243E+01
  0.1000000E+01  0.6648281E+06 -0.1570783E+01  0.3849828E+00 -0.3137292E+01  0.2255953E+07  0.1493312E-04  0.6101596E+00 -0.3028119E+01  0.7884750E+07 -0.1570818E+01  0.1072033E-07  0.1527345E+01  0.4833335E+06 -0.1570802E+01  0.1047515E+01  0.1130605E-02  0.1547761E+06  0.3141585E+01  0.5390930E+03 -0.2974768E-03  0.3739817E+08 -0.1570802E+01  0.3543983E-07  0.1104691E+01
  0.1020000E+01  0.6784704E+06 -0.1570783E+01  0.9346499E-01  0.3101911E+01  0.2198492E+07  0.1534422E-04  0.1084514E+01  0.3127718E+01  0.8052145E+07 -0.1570815E+01  0.1586711E-07  0.3075513E+01  0.4776154E+06 -0.1570801E+01  0.4019009E+01 -0.6078701E-03  0.1494458E+06  0.3141585E+01  0.4793662E+03 -0.1747822E-04  0.3716554E+08 -0.1570802E+01  0.8942534E-07  0.4282953E+00
  0.1040000E+01  0.6911341E+06 -0.1570783E+01  0.4257457E+00 -0.3138098E+01  0.2139780E+07  0.1592451E-04  0.2463287E+01  0.5647076E-02  0.8210546E+07 -0.1570812E+01  0.1394848E-07 -0.2558220E+01  0.4719506E+06 -0.1570801E+01  0.2629074E+01 -0.6840972E-03  0.1441934E+06  0.3141584E+01  0.2089674E+03  0.2532940E-04  0.3692206E+08 -0.1570802E+01  0.3061664E-07  0.1850245E+01
  0.1060000E+01  0.7027389E+06 -0.1570782E+01  0.1277712E+00  0.5194914E-02  0.2079866E+07  0.1643149E-04  0.7541853E+00  0.1157364E+00  0.8359311E+07 -0.1570809E+01  0.4427457E-07  0.1315614E+01  0.4663438E+06 -0.1570802E+01  0.2920170E+01  0.9286506E-03  0.1390219E+06  0.3141584E+01  0.1273348E+02  0.3133195E+01  0.3666920E+08 -0.1570802E+01  0.1405073E-07  0.2456454E+00
  0.1080000E+01  0.7132015E+06 -0.1570782E+01  0.3201497E+00 -0.4122689E-01  0.2018808E+07  0.1701812E-04  0.5734088E+00 -0.3003851E+01  0.8497812E+07 -0.1570807E+01  0.2659268E-07 -0.8659687E+00  0.4607978E+06 -0.1570802E+01  0.3585187E+01 -0.3661906E-04  0.1339366E+06  0.3141584E+01  0.5374208E+02  0.2030883E-03  0.3640834E+08 -0.1570803E+01  0.5483463E-07 -0.1672048E+00
  0.1100000E+01  0.7224435E+06 -0.1570782E+01  0.9222321E-01  0.9087709E-01  0.1956664E+07  0.1759116E-04  0.2000779E+01 -0.3089716E+01  0.8625431E+07 -0.1570804E+01  0.1919971E-07 -0.2253113E+01  0.4553154E+06 -0.1570803E+01  0.2790093E+01  0.4737667E-03  0.1289414E+06  0.3141583E+01  0.8069072E+02 -0.3140832E+01  0.3614066E+08 -0.1570802E+01  0.2439271E-07 -0.1425569E+01
  0.1120000E+01  0.7303839E+06 -0.1570781E+01  0.7831485E-01 -0.1396169E+00  0.1893502E+07  0.1803099E-04  0.1144756E+01  0.9257082E-01  0.8741569E+07 -0.1570802E+01  0.2091462E-07  0.2332577E+01  0.4499010E+06 -0.1570803E+01  0.2374352E+01  0.4280185E-04  0.1240396E+06  0.3141583E+01  0.3824020E+02  0.3139238E+01  0.3586695E+08 -0.1570803E+01  0.2874024E-07  0.4504523E+00
  0.1140000E+01  0.7369459E+06 -0.1570781E+01  0.1144127E+00 -0.3099470E+01  0.1829397E+07  0.1848220E-04  0.5467414E+01 -0.3134333E+01  0.8845633E+07 -0.1570799E+01  0.2889071E-07  0.7112486E+00  0.4445536E+06 -0.1570803E+01  0.2788377E+01  0.5141176E-03  0.1192350E+06  0.3141583E+01  0.2066939E+03  0.3140547E+01  0.3558850E+08 -0.1570803E+01  0.1294489E-07  0.9333423E+00
  0.1160000E+01  0.7420510E+06 -0.1570781E+01  0.6663805E-01 -0.2335810E-01  0.1764426E+07  0.1877932E-04  0.6091352E+00  0.1009842E-01  0.8937104E+07 -0.1570797E+01  0.1635791E-07  0.1656302E+01  0.4392796E+06 -0.1570803E+01  0.1866163E+01  0.2547036E-04  0.1145304E+06  0.3141582E+01  0.7371547E+02 -0.3140944E+01  0.3530618E+08 -0.1570803E+01  0.2649456E-07 -0.1744893E+01
  0.1180000E+01  0.7456261E+06 -0.1570781E+01  0.1102671E+00  0.3052809E+01  0.1698669E+07  0.1964781E-04  0.1618641E+00 -0.6143702E+00  0.9015399E+07 -0.1570795E+01  0.1721215E-07 -0.4031156E+00  0.4340759E+06 -0.1570803E+01  0.1358019E+01  0.8531089E-03  0.1099284E+06  0.3141582E+01  0.1372778E+03 -0.3140401E+01  0.3502059E+08 -0.1570803E+01  0.2731510E-07  0.5799031E-01
  0.1200000E+01  0.7475991E+06 -0.1570780E+01  0.1314514E-01 -0.4452177E+00  0.1632221E+07  0.1975263E-04  0.2443673E+01 -0.3128885E+01  0.9080049E+07 -0.1570793E+01  0.1983985E-07 -0.9437256E+00  0.4289474E+06 -0.1570804E+01  0.1620333E+01 -0.1955649E-02  0.1054313E+06  0.3141582E+01  0.1073895E+03  0.3140345E+01  0.3473262E+08 -0.1570803E+01  0.5390176E-07 -0.1701103E+01
  0.1220000E+01  0.7479038E+06 -0.1570780E+01  0.8226500E-01 -0.3056911E+01  0.1565171E+07  0.2026914E-04  0.5498504E-01  0.1849072E+01  0.9130591E+07 -0.1570790E+01  0.2654678E-07  0.1754206E-01  0.4238934E+06 -0.1570803E+01  0.1806628E+01 -0.6122608E-03  0.1010410E+06  0.3141581E+01  0.1300277E+03  0.3141557E+01  0.3444282E+08 -0.1570803E+01  0.6984078E-07 -0.1242928E+01
  0.1240000E+01  0.7464744E+06 -0.1570780E+01  0.6338100E-01  0.1883957E-01  0.1497625E+07  0.2082509E-04  0.1098564E+01 -0.1803510E-01  0.9166568E+07 -0.1570788E+01  0.3132416E-08 -0.7328151E+00  0.4189148E+06 -0.1570803E+01  0.1799388E+01 -0.1337324E-02  0.9675952E+05  0.3141581E+01  0.2126569E+02 -0.3141483E+01  0.3415186E+08 -0.1570804E+01  0.1985033E-07 -0.5468066E+00
  0.1260000E+01  0.7432542E+06 -0.1570780E+01  0.2792716E+00  0.3100644E+01  0.1429680E+07  0.2142224E-04  0.7293900E+00 -0.1740620E+00  0.9187612E+07 -0.1570786E+01  0.3509879E-07  0.9966865E-01  0.4140135E+06 -0.1570804E+01  0.1229566E+01  0.3016646E-03  0.9258815E+05  0.3141581E+01  0.5873190E+02 -0.3139378E+01  0.3386009E+08 -0.1570803E+01  0.6391259E-07 -0.1275599E+01
  0.1280000E+01  0.7381872E+06 -0.1570780E+01  0.1588391E+00 -0.3302816E-01  0.1361452E+07  0.2149101E-04  0.1293262E+01 -0.1192924E+00  0.9193371E+07 -0.1570784E+01  0.9823135E-08 -0.9495170E-01  0.4091890E+06 -0.1570804E+01  0.1481086E+01 -0.1813686E-02  0.8852803E+05  0.3141580E+01  0.8664559E+02  0.3141160E+01  0.3356809E+08 -0.1570804E+01  0.2397760E-07 -0.1222066E+01
  0.1300000E+01  0.7312262E+06 -0.1570780E+01  0.5824624E-01  0.5937116E-01  0.1293050E+07  0.2194221E-04  0.7929105E+00  0.5468510E-01  0.9183542E+07 -0.1570782E+01  0.8727268E-08 -0.1410034E+01  0.4044408E+06 -0.1570804E+01  0.1059891E+01  0.9657084E-03  0.8458006E+05  0.3141580E+01  0.4663951E+02  0.3137960E+01  0.3327626E+08 -0.1570804E+01  0.4950200E-07 -0.1477903E+01
  0.1320000E+01  0.7223301E+06 -0.1570780E+01  0.1348337E+00 -0.3085375E+01  0.1224596E+07  0.2235456E-04  0.1897517E+01 -0.3332391E-01  0.9157861E+07 -0.1570780E+01  0.3026798E-07  0.1570796E+01  0.3997670E+06 -0.1570804E+01  0.1609633E+01  0.6228341E-03  0.8074488E+05  0.3141579E+01  0.3922556E+02 -0.3141210E+01  0.3298485E+08 -0.1570804E+01  0.1469639E-07 -0.9546298E+00
  0.1340000E+01  0.7114636E+06 -0.1570781E+01  0.3634434E-01 -0.2949384E+01  0.1156211E+07  0.2261531E-04  0.7051041E+00  0.1004794E+00  0.9116160E+07 -0.1570778E+01  0.2146592E-08 -0.1789465E+01  0.3951698E+06 -0.1570804E+01  0.1291381E+01 -0.1214961E-02  0.7702288E+05  0.3141579E+01  0.8724146E+02  0.3140253E+01  0.3269417E+08 -0.1570804E+01  0.4630559E-08 -0.4507467E+00
  0.1360000E+01  0.6986023E+06 -0.1570781E+01  0.2518382E-01  0.3344445E+00  0.1088019E+07  0.2235962E-04  0.1111594E+01 -0.3119467E+01  0.9058275E+07 -0.1570776E+01  0.1699664E-07  0.1570796E+01  0.3906466E+06 -0.1570805E+01  0.1524796E+01  0.2188761E-02  0.7341410E+05  0.3141579E+01  0.6638466E+02  0.3141318E+01  0.3240452E+08 -0.1570805E+01  0.3503217E-07 -0.1135128E+01
  0.1380000E+01  0.6837252E+06 -0.1570782E+01  0.8475955E-01 -0.6237389E-01  0.1020151E+07  0.2254132E-04  0.1401039E+01  0.1028746E-01  0.8984146E+07 -0.1570774E+01  0.6800090E-08  0.2234843E+01  0.3861971E+06 -0.1570805E+01  0.1685055E+01 -0.3803388E-03  0.6991856E+05  0.3141578E+01  0.8946456E+02 -0.3139180E+01  0.3211602E+08 -0.1570805E+01  0.4412411E-07 -0.5169554E+00
  0.1400000E+01  0.6668264E+06 -0.1570783E+01  0.4721384E-01  0.1155411E-01  0.9527354E+06  0.2223367E-04  0.2575142E+00  0.4231423E+00  0.8893734E+07 -0.1570773E+01  0.2364005E-07  0.2660326E+01  0.3818202E+06 -0.1570805E+01  0.2225433E+01 -0.1935346E-03  0.6653577E+05  0.3141578E+01  0.9008095E+02  0.3137807E+01  0.3182895E+08 -0.1570805E+01  0.3293172E-07 -0.1184190E+01
  0.1420000E+01  0.6479039E+06 -0.1570784E+01  0.5750193E-01 -0.3126201E+01  0.8859069E+06  0.2242534E-04  0.4410252E+00 -0.2998711E+01  0.8787083E+07 -0.1570771E+01  0.7902534E-08 -0.2356194E+01  0.3775132E+06 -0.1570805E+01  0.1433314E+01  0.6379235E-03  0.6326519E+05  0.3141578E+01  0.5767936E+02 -0.3138980E+01  0.3154334E+08 -0.1570805E+01  0.3087840E-07  0.2323317E+00
  0.1440000E+01  0.6269684E+06 -0.1570785E+01  0.5858461E-02 -0.2392933E+00  0.8198002E+06  0.2270748E-04  0.1026265E+00  0.3007385E+01  0.8664332E+07 -0.1570769E+01  0.1216303E-07 -0.3045733E+01  0.3732752E+06 -0.1570805E+01  0.1216174E+01 -0.1874626E-02  0.6010619E+05  0.3141577E+01  0.9549433E+02 -0.3141373E+01  0.3125934E+08 -0.1570805E+01  0.2140139E-07 -0.1074332E+01
  0.1460000E+01  0.6040428E+06 -0.1570786E+01  0.7142016E-01  0.4664564E-01  0.7545524E+06  0.2164879E-04  0.2359672E+01 -0.3125172E+01  0.8525620E+07 -0.1570768E+01  0.1708412E-07  0.1875307E+01  0.3691045E+06 -0.1570806E+01  0.1199501E+01  0.7030542E-03  0.5705768E+05  0.3141577E+01  0.6143089E+02  0.3139304E+01  0.3097701E+08 -0.1570806E+01  0.1859060E-07 -0.1297252E+01
  0.1480000E+01  0.5791579E+06 -0.1570788E+01  0.3361506E-01  0.3007721E-01  0.6902965E+06  0.2144694E-04  0.1005550E+01 -0.1174392E+00  0.8371236E+07 -0.1570766E+01  0.3062144E-07 -0.2701750E+01  0.3649990E+06 -0.1570806E+01  0.1461390E+01 -0.3667560E-03  0.5411855E+05  0.3141577E+01  0.7922468E+02 -0.3141337E+01  0.3069639E+08 -0.1570806E+01  0.9961589E-08 -0.1124439E+01
  0.1500000E+01  0.5523579E+06 -0.1570790E+01  0.6571612E-02 -0.1186409E+01  0.6271708E+06  0.2053094E-04  0.1591100E+01  0.3133578E+01  0.8201478E+07 -0.1570765E+01  0.1979060E-07 -0.4899573E+00  0.3609556E+06 -0.1570806E+01  0.9169968E+00 -0.6128219E-03  0.5128756E+05  0.3141576E+01  0.5309451E+02 -0.3136941E+01  0.3041742E+08 -0.1570806E+01  0.4447699E-08 -0.9839909E+00
  0.1520000E+01  0.5236998E+06 -0.1570793E+01  0.2271754E-01 -0.2555080E+01  0.5653099E+06  0.1956686E-04  0.2207669E+01 -0.3136225E+01  0.8016752E+07 -0.1570763E+01  0.8865927E-08 -0.1048393E+01  0.3569722E+06 -0.1570806E+01  0.6421423E+00 -0.3604739E-02  0.4856320E+05  0.3141576E+01  0.5437663E+02 -0.3141418E+01  0.3014006E+08 -0.1570806E+01  0.1573675E-07 -0.1455060E+01
  0.1540000E+01  0.4932498E+06 -0.1570796E+01  0.8833590E-02  0.9653063E+00  0.5048471E+06  0.1793792E-04  0.3720499E+00 -0.3505044E+00  0.7817514E+07 -0.1570762E+01  0.3092794E-07 -0.1093682E+01  0.3530471E+06 -0.1570806E+01  0.6039227E+00  0.1262075E-02  0.4594384E+05  0.3141575E+01  0.5051215E+02  0.3139175E+01  0.2986438E+08 -0.1570806E+01  0.1463662E-07 -0.8886769E+00
  0.1560000E+01  0.4610900E+06 -0.1570800E+01  0.1174373E-01  0.1697166E+01  0.4459126E+06  0.1675648E-04  0.7723199E+00  0.3085623E+01  0.7604308E+07 -0.1570761E+01  0.2282453E-07 -0.2819842E+01  0.3491763E+06 -0.1570807E+01  0.6646217E+00  0.1918942E-02  0.4342777E+05  0.3141575E+01  0.3795229E+02 -0.3139584E+01  0.2959025E+08 -0.1570807E+01  0.1025547E-07 -0.1015329E+01