VARIABLES="w (rad/s)"
"A   1   1" "B   1   1"
"A   1   2" "B   1   2"
"A   1   3" "B   1   3"
"A   1   4" "B   1   4"
"A   1   5" "B   1   5"
"A   1   6" "B   1   6"
"A   2   1" "B   2   1"
"A   2   2" "B   2   2"
"A   2   3" "B   2   3"
"A   2   4" "B   2   4"
"A   2   5" "B   2   5"
"A   2   6" "B   2   6"
Zone t="Motion of body    1 in DoF   1",I=   100,F=POINT
  0.2000000E-01  0.5999289E+07  0.1619950E-02 -0.9191513E+00 -0.8896925E-05  0.4448959E+06  0.2940179E+03 -0.1779556E+00  0.2669937E-03 -0.8409133E+07 -0.5711288E-01  0.5820766E-07  0.7958079E-12 -0.5822927E+07 -0.2099401E-01 -0.1004037E+01  0.3307499E-03 -0.4465271E+05  0.2791211E+02 -0.2350383E+03 -0.1264188E-01 -0.5141492E+09 -0.3855389E+00  0.3260766E-06  0.5752554E-10
  0.4000000E-01  0.5995378E+07  0.2685642E-01 -0.7104874E+00  0.1260638E-04  0.5771542E+06  0.7352437E+03 -0.3510952E+00 -0.7223715E-03 -0.8379836E+07 -0.1152668E+00  0.1047738E-06  0.8299139E-11 -0.5933190E+07  0.9539485E-02  0.9959901E+00 -0.2095066E-03 -0.4323638E+05  0.6820315E+02 -0.3146866E+03  0.5891666E-01 -0.5225896E+09 -0.1345424E+01  0.5210268E-06  0.8867573E-10
  0.6000000E-01  0.5975712E+07  0.8487344E-01 -0.4791260E+00  0.2305955E-04  0.5583699E+06  0.1141049E+04  0.1700719E+00  0.5535707E-03 -0.8268986E+07 -0.2941496E+00  0.1241764E-06  0.3637979E-11 -0.5961422E+07 -0.9197009E-01 -0.1010222E+01  0.3113545E-02 -0.4805640E+05  0.1018777E+03 -0.7730716E+02  0.5272135E-02 -0.5246546E+09 -0.8836305E+01 -0.6519258E-06  0.1864464E-09
  0.8000000E-01  0.5995962E+07  0.2246637E+00 -0.5975723E+00 -0.1794025E-03  0.5760457E+06  0.1626919E+04  0.3762722E+00  0.2503386E-03 -0.8137384E+07 -0.5110941E+00 -0.3958121E-06 -0.1364242E-11 -0.6008178E+07 -0.7820511E-01  0.3950428E-01  0.1040347E-01 -0.4995496E+05  0.1373990E+03 -0.5016555E+03  0.3512590E+00 -0.5285927E+09 -0.1468802E+02 -0.1901799E-05  0.1451554E-08
  0.9999999E-01  0.6035481E+07  0.4457928E+00  0.1342774E-01 -0.7287413E-04  0.5976794E+06  0.2161940E+04 -0.5936432E+00 -0.1869026E-02 -0.8224122E+07 -0.1194241E+01 -0.1396984E-06  0.1500666E-10 -0.6061934E+07 -0.1685092E+00  0.1299508E+01  0.4424632E-02 -0.5149748E+05  0.1677908E+03 -0.6244246E+02 -0.7700378E+00 -0.5332781E+09 -0.2960742E+02  0.7585186E-06  0.6330083E-09
  0.1200000E+00  0.6020458E+07  0.8540516E+00 -0.1523336E+00 -0.1096874E-03  0.5826272E+06  0.2878077E+04  0.1919429E+00  0.2784399E-02 -0.8149272E+07 -0.1852983E+01 -0.2017866E-06 -0.1364242E-10 -0.6065530E+07 -0.5844851E+00 -0.1563201E+01 -0.1428984E-01 -0.5408349E+05  0.2022322E+03 -0.2057630E+03  0.3511062E+00 -0.5335500E+09 -0.7241740E+02 -0.1992900E-05  0.8767529E-09
  0.1400000E+00  0.6029702E+07  0.1563294E+01  0.7611956E+00  0.4165247E-03  0.5794304E+06  0.3793713E+04  0.9809221E-01  0.1235718E-02 -0.8296106E+07 -0.2998912E+01 -0.6652304E-07  0.1546141E-10 -0.6054250E+07 -0.9947243E+00 -0.1069912E+01  0.2630834E-01 -0.5522830E+05  0.2337525E+03 -0.6426769E+02  0.2343409E+00 -0.5325854E+09 -0.1273069E+03  0.1896946E-08 -0.2311936E-08
  0.1600000E+00  0.6083110E+07  0.2618522E+01  0.4919052E+00  0.2392232E-03  0.5901918E+06  0.4827636E+04 -0.1654148E+00  0.1022739E-01 -0.8175492E+07 -0.5208032E+01 -0.2328306E-07  0.7275958E-11 -0.6098867E+07 -0.1568377E+01 -0.3666246E+01  0.3676599E-01 -0.5480966E+05  0.2403791E+03 -0.2797630E+03  0.4740606E+00 -0.5364876E+09 -0.2109421E+03 -0.3595119E-06 -0.3035893E-08
  0.1800000E+00  0.6029122E+07  0.4309701E+01 -0.1325819E+00  0.3953874E-03  0.5803807E+06  0.6275753E+04  0.6126404E+00 -0.2004579E-02 -0.8264810E+07 -0.7347373E+01  0.3932251E-06  0.5729817E-10 -0.6082872E+07 -0.2523952E+01 -0.1966508E+01 -0.1144821E-01 -0.5452539E+05  0.2543267E+03  0.1168643E+01  0.1767107E+00 -0.5351061E+09 -0.3344872E+03  0.1450220E-05 -0.3583409E-08
  0.2000000E+00  0.6114302E+07  0.7105255E+01  0.1364136E+00 -0.4257560E-03  0.5620471E+06  0.8130096E+04  0.2032471E+00 -0.1372909E-01 -0.8419893E+07 -0.1172055E+02 -0.2980232E-06 -0.1818989E-10 -0.6122725E+07 -0.3937365E+01  0.3872453E+01 -0.1912397E-01 -0.5726645E+05  0.2291276E+03 -0.1496091E+03 -0.1658109E+01 -0.5386733E+09 -0.5425079E+03 -0.1010794E-05 -0.2633897E-08
  0.2200000E+00  0.6127704E+07  0.1097409E+02  0.3997803E+00 -0.6636977E-04  0.5850176E+06  0.1052035E+05 -0.4362626E-01  0.2674015E-01 -0.8193801E+07 -0.1680196E+02 -0.1523982E-06  0.3637979E-11 -0.6144611E+07 -0.5360399E+01 -0.1570808E+01  0.1239708E-01 -0.5623034E+05  0.1806725E+03 -0.7291964E+02  0.3450050E+00 -0.5405912E+09 -0.8065128E+03 -0.5739573E-06 -0.7577910E-08
  0.2400000E+00  0.6116087E+07  0.1725076E+02 -0.1439413E+00  0.1551837E-02  0.5711034E+06  0.1356967E+05 -0.4845937E+00 -0.3683500E-02 -0.8468348E+07 -0.2346231E+02 -0.1241764E-06 -0.7275958E-11 -0.6145284E+07 -0.7148109E+01 -0.2794450E+00 -0.9889624E-01 -0.5949511E+05  0.6327815E+02  0.1978101E+02  0.1060993E+01 -0.5406655E+09 -0.1218022E+04  0.6197600E-06  0.1473381E-08
  0.2600000E+00  0.6169840E+07  0.2582157E+02  0.4849948E+00  0.3455877E-02  0.5452416E+06  0.1715850E+05 -0.2105713E+00  0.3862016E-02 -0.8559105E+07 -0.3101995E+02 -0.1432804E-07  0.4729372E-10 -0.6188468E+07 -0.8381055E+01 -0.2663199E+01 -0.6484044E-01 -0.5775902E+05 -0.1106186E+03  0.1415274E+03  0.1383321E+01 -0.5445428E+09 -0.1691167E+04  0.9146719E-06  0.4067260E-08
  0.2800000E+00  0.6213760E+07  0.3787377E+02  0.1026698E+00 -0.9457469E-03  0.5693549E+06  0.2121624E+05 -0.2937317E+00 -0.2690728E-01 -0.8405121E+07 -0.3905951E+02 -0.7982765E-07 -0.1637090E-09 -0.6219674E+07 -0.9748955E+01 -0.1827220E+01  0.1253599E-01 -0.6115775E+05 -0.4337255E+03  0.6098305E+01 -0.1096503E+01 -0.5472595E+09 -0.2332281E+04  0.1127091E-06 -0.1145236E-07
  0.3000000E+00  0.6208300E+07  0.5391861E+02 -0.3535970E+00 -0.3892779E-02  0.5689881E+06  0.2580004E+05 -0.7855224E+00 -0.2168235E-01 -0.8415440E+07 -0.3146076E+02  0.3352761E-06 -0.3492460E-09 -0.6236198E+07 -0.3249190E+01 -0.2499852E+01  0.9233391E-01 -0.5896822E+05 -0.7088474E+03  0.1174182E+03 -0.5562294E+01 -0.5487401E+09 -0.2798220E+04 -0.1554072E-05 -0.1455192E-09
  0.3200000E+00  0.6236472E+07  0.7669920E+02 -0.6179810E+00  0.1651585E-02  0.5385956E+06  0.3103112E+05  0.2911568E+00 -0.8108875E-01 -0.8823197E+07 -0.2662420E+02 -0.2677552E-06  0.1637090E-09 -0.6280206E+07  0.3644230E+01  0.7417860E+00  0.3828543E-01 -0.6057518E+05 -0.1298435E+04  0.4000699E+03  0.2224475E+01 -0.5526463E+09 -0.3487707E+04  0.1388258E-05  0.2160232E-07
  0.3400000E+00  0.6313003E+07  0.1027476E+03  0.2653234E+00  0.3789663E-03  0.5377083E+06  0.3584197E+05  0.1700009E+00  0.1148947E-01 -0.8597377E+07 -0.4055459E+01 -0.5478368E-07  0.1127773E-09 -0.6288733E+07  0.1509472E+02 -0.1300186E+01  0.7923436E-01 -0.6228679E+05 -0.1571330E+04 -0.1012031E+03 -0.3068091E+01 -0.5534240E+09 -0.3947591E+04  0.1159750E-05  0.5449692E-08
  0.3600000E+00  0.6342561E+07  0.1373643E+03  0.3228081E+00 -0.1395941E-03  0.5578874E+06  0.4151598E+05 -0.1453823E+00 -0.4749611E-01 -0.8541024E+07  0.2696747E+02  0.2069606E-06 -0.1527951E-09 -0.6362278E+07  0.2454817E+02 -0.8301529E+00  0.1143120E+00 -0.6229505E+05 -0.2283458E+04 -0.6347400E+02 -0.2426601E+01 -0.5598562E+09 -0.4768441E+04  0.1567229E-05 -0.2044544E-07
  0.3800000E+00  0.6357190E+07  0.1866350E+03  0.1647949E+00  0.6729841E-02  0.5524639E+06  0.4775834E+05  0.3924721E+00  0.6604218E-01 -0.8722344E+07  0.1420847E+03 -0.1862645E-06  0.2764864E-09 -0.6366326E+07  0.7480344E+02  0.1967309E+01 -0.7344568E-01 -0.6178551E+05 -0.2852905E+04  0.1613708E+03 -0.4518789E+01 -0.5602519E+09 -0.3960380E+04 -0.1246726E-06  0.7581548E-08
  0.4000000E+00  0.6363252E+07  0.2444511E+03 -0.8117676E+00  0.6017685E-03  0.5312386E+06  0.5425842E+05 -0.7568359E+00  0.1750073E-01 -0.8909651E+07  0.2777333E+03  0.2421439E-06 -0.1091394E-09 -0.6412634E+07  0.1275378E+03 -0.1170283E+00 -0.2773386E+00 -0.6037957E+05 -0.3449544E+04  0.1751396E+03  0.2933172E+01 -0.5643392E+09 -0.3015157E+04 -0.5408265E-06 -0.4729372E-09
  0.4200000E+00  0.6487968E+07  0.3070316E+03 -0.5379813E+00  0.5507231E-02  0.5141595E+06  0.6027890E+05 -0.1570929E+00  0.2035093E-01 -0.9021306E+07  0.3859326E+03  0.3193106E-06 -0.4656613E-09 -0.6482144E+07  0.1552413E+03 -0.1086029E+01  0.1586532E+00 -0.6174495E+05 -0.4435725E+04  0.3129738E+02 -0.4787616E+00 -0.5704754E+09 -0.3246050E+04  0.5135094E-06 -0.3099558E-08
  0.4400000E+00  0.6513532E+07  0.3848150E+03 -0.6575151E-01 -0.1279831E-01  0.5289437E+06  0.6603258E+05  0.4276623E+00 -0.8881554E-01 -0.8839457E+07  0.6087120E+03 -0.1693314E-07  0.3637979E-10 -0.6491076E+07  0.2137759E+03  0.8770903E+00 -0.7711822E-01 -0.6010646E+05 -0.4651483E+04  0.1834107E+03 -0.2651198E+01 -0.5712659E+09 -0.1976557E+04  0.5725848E-06  0.2526212E-07
  0.4600000E+00  0.6550508E+07  0.4953100E+03 -0.8680261E+00 -0.1252651E-02  0.5446389E+06  0.7279562E+05 -0.1413760E+00  0.2189207E-01 -0.8790224E+07  0.1008861E+04  0.3887259E-06  0.9968062E-09 -0.6566352E+07  0.3116346E+03 -0.2715128E+01 -0.1524678E+00 -0.5964936E+05 -0.5408764E+04 -0.1261675E+02 -0.3608727E+01 -0.5778223E+09  0.1352933E+04 -0.1715268E-06 -0.2090383E-07
  0.4800000E+00  0.6596402E+07  0.6478544E+03  0.2693176E+00 -0.1022816E-03  0.5305288E+06  0.8129474E+05 -0.5429586E-01  0.3767014E-04 -0.9030692E+07  0.1617676E+04 -0.2793968E-06  0.6984919E-09 -0.6641738E+07  0.4615060E+03 -0.2993342E+01 -0.5325183E-01 -0.6075059E+05 -0.6677444E+04  0.1300406E+03 -0.6530431E+01 -0.5844820E+09  0.7176913E+04 -0.7647638E-06 -0.1500302E-07
  0.5000000E+00  0.6654520E+07  0.8280999E+03  0.4169922E+00  0.9239674E-02  0.5112577E+06  0.8972455E+05 -0.3102417E+00  0.1698877E+00 -0.9383687E+07  0.2430003E+04 -0.4470348E-07  0.1891749E-09 -0.6695341E+07  0.6719156E+03 -0.1490575E+01  0.8555838E-01 -0.6077185E+05 -0.8472325E+04  0.5993618E+02 -0.6383280E+00 -0.5892122E+09  0.1573490E+05 -0.7995986E-06 -0.3641981E-07
  0.5200000E+00  0.6683730E+07  0.1003259E+04 -0.1088304E+01 -0.5912066E-02  0.4815804E+06  0.9517487E+05 -0.2564650E-01  0.2819240E-02 -0.9366721E+07  0.3547812E+04  0.3582010E-06 -0.7712515E-09 -0.6678798E+07  0.9394144E+03  0.1821731E+01 -0.6305748E-01 -0.6084931E+05 -0.7545745E+04 -0.1055362E+03 -0.7211116E+01 -0.5878146E+09  0.2959412E+05 -0.2105130E-07  0.2174056E-07
  0.5400000E+00  0.6806912E+07  0.1125667E+04 -0.3162525E+00  0.5529881E-02  0.4902879E+06  0.1012377E+06 -0.2858480E+00  0.8658791E-01 -0.9259949E+07  0.3637230E+04 -0.2483527E-06  0.4511094E-09 -0.6800362E+07  0.8335392E+03  0.4224902E+00  0.2461442E+00 -0.5650285E+05 -0.8348917E+04  0.1991422E+01 -0.3044515E+00 -0.5984747E+09  0.2398366E+05 -0.4486935E-05 -0.1895387E-07
  0.5599999E+00  0.6893816E+07  0.1342059E+04  0.1669748E+00  0.7569790E-03  0.5026087E+06  0.1079342E+06 -0.2454486E+00 -0.2619106E+00 -0.9361756E+07  0.4179152E+04  0.2128738E-06  0.1862645E-08 -0.6921870E+07  0.7796193E+03 -0.2189670E+01  0.1751572E+00 -0.5764327E+05 -0.9769729E+04 -0.7564637E+02  0.1227552E+01 -0.6090895E+09  0.2066972E+05 -0.2515273E-06  0.4110734E-07
  0.5800000E+00  0.6967710E+07  0.1794053E+04 -0.5823596E+00  0.3149509E-03  0.5085438E+06  0.1157536E+06 -0.2350380E+00 -0.8562207E-03 -0.9456636E+07  0.6810605E+04 -0.2954541E-06  0.6402843E-09 -0.6970027E+07  0.1282340E+04  0.1214828E+00  0.2676404E-01 -0.5846184E+05 -0.1171897E+05  0.2465989E+03 -0.2689495E+01 -0.6133304E+09  0.4645738E+05  0.2294561E-06  0.8109055E-08
  0.6000000E+00  0.6962130E+07  0.2408504E+04  0.6062825E-01  0.6049633E-02  0.4914333E+06  0.1239539E+06 -0.7715861E-01  0.2121914E+00 -0.9497260E+07  0.1099913E+05 -0.1241763E-06 -0.1164153E-09 -0.6975658E+07  0.2056611E+04  0.1152812E+01  0.2224391E+00 -0.5878269E+05 -0.1024711E+05  0.8517286E+02  0.3817913E+01 -0.6138680E+09  0.9209802E+05  0.7309487E-06 -0.6875780E-08
  0.6200000E+00  0.7058095E+07  0.2937503E+04 -0.7521106E-01  0.1121616E-01  0.4833937E+06  0.1342428E+06  0.1115368E+00 -0.2330409E+00 -0.9787966E+07  0.1387687E+05  0.4806826E-07  0.5820766E-09 -0.7116787E+07  0.2371981E+04 -0.2150831E+01  0.1268639E+00 -0.5390629E+05 -0.1123967E+05 -0.1658527E+03 -0.1616715E+02 -0.6263046E+09  0.1119484E+06  0.2948230E-06 -0.8338247E-08
  0.6400000E+00  0.7163050E+07  0.3403951E+04  0.5100250E+00 -0.1126003E-01  0.4582672E+06  0.1424076E+06  0.1627922E+00  0.1304269E+00 -0.1009068E+08  0.1699303E+05 -0.1629815E-06  0.4365575E-09 -0.7224536E+07  0.2718410E+04  0.4766397E-01 -0.6623894E-01 -0.5595033E+05 -0.1262309E+05 -0.1019516E+03 -0.5912706E+01 -0.6358045E+09  0.1357394E+06 -0.2198379E-05 -0.7454219E-08
  0.6600000E+00  0.7344520E+07  0.3452524E+04 -0.3525243E+00  0.3625393E-02  0.4470475E+06  0.1480630E+06  0.1858798E+00  0.5509603E-01 -0.1031569E+08  0.1798430E+05 -0.5644379E-07 -0.1891749E-08 -0.7343618E+07  0.2696534E+04  0.4270813E+01 -0.6166475E-01 -0.5206891E+05 -0.1442940E+05  0.1493974E+03  0.4656355E+01 -0.6462422E+09  0.1345108E+06  0.2415910E-05  0.1188891E-07
  0.6800000E+00  0.7364880E+07  0.3923405E+04  0.1109404E+00 -0.2250195E-02  0.4411103E+06  0.1489359E+06  0.3120871E+00  0.7570052E-01 -0.1010307E+08  0.2035752E+05 -0.4382694E-07 -0.8731149E-09 -0.7321188E+07  0.3066557E+04  0.1074689E+01 -0.9768096E-01 -0.5448197E+05 -0.1266111E+05 -0.3673923E+03  0.9044812E+01 -0.6443398E+09  0.1589765E+06  0.2829599E-06 -0.1749868E-08
  0.7000000E+00  0.7395593E+07  0.4753627E+04 -0.3215681E+00  0.1300955E-01  0.4465844E+06  0.1520393E+06 -0.8203125E+00 -0.2986315E+00 -0.9998139E+07  0.2262027E+05  0.0000000E+00  0.7858034E-09 -0.7404093E+07  0.2782656E+04 -0.3084087E+00  0.2956185E-01 -0.5472346E+05 -0.1279293E+05 -0.2315323E+03  0.7037570E+00 -0.6515009E+09  0.1475360E+06  0.1898625E-05  0.8607458E-08
  0.7200000E+00  0.7581944E+07  0.6074635E+04  0.5001492E+00  0.3070498E-01  0.4568074E+06  0.1616746E+06 -0.5976359E-01  0.3047801E+00 -0.1025710E+08  0.2690555E+05 -0.1448724E-06 -0.1280569E-08 -0.7621960E+07  0.2475421E+04  0.5014204E+01  0.8237523E-01 -0.5082907E+05 -0.1361166E+05 -0.3184455E+03 -0.5599392E+00 -0.6706211E+09  0.1303494E+06  0.2195662E-05  0.2853631E-07
  0.7399999E+00  0.7775734E+07  0.8159728E+04 -0.6697372E+00 -0.1000404E-01  0.4567819E+06  0.1732883E+06 -0.1972096E+00 -0.4926097E-01 -0.1061525E+08  0.3657453E+05  0.0000000E+00  0.8731149E-10 -0.7834994E+07  0.2803077E+04 -0.9424318E-01  0.9340571E-01 -0.5315208E+05 -0.1520227E+05 -0.1151316E+03  0.6711022E+01 -0.6893467E+09  0.1532755E+06 -0.1548796E-05 -0.3920468E-07
  0.7600000E+00  0.7931814E+07  0.1100776E+05  0.3160979E+00  0.1847839E-01  0.4542818E+06  0.1864013E+06  0.1841495E+00 -0.2957146E+00 -0.1101065E+08  0.5269371E+05 -0.2156747E-06  0.1018634E-08 -0.7997868E+07  0.3888112E+04  0.1114126E+01 -0.1948576E+00 -0.4894809E+05 -0.1722187E+05  0.2965200E+02  0.2186965E+02 -0.7036813E+09  0.2233251E+06 -0.1402998E-05 -0.1180706E-07
  0.7800000E+00  0.7954482E+07  0.1448118E+05  0.6616837E+00  0.2481174E-01  0.4302626E+06  0.1957721E+06  0.3849910E+00 -0.4580123E+00 -0.1117822E+08  0.7793233E+05  0.3247689E-06 -0.1251465E-08 -0.7999324E+07  0.6173939E+04 -0.1130751E+01 -0.9208429E-01 -0.5214081E+05 -0.1751129E+05  0.9113898E+02  0.1008204E+02 -0.7038935E+09  0.3692440E+06  0.6568068E-06 -0.7463314E-08
  0.8000000E+00  0.7409010E+07  0.1866134E+05 -0.6549072E+00 -0.2253389E-01  0.3209737E+06  0.1610948E+06  0.1101685E+00  0.9415853E-01 -0.1040065E+08  0.1247750E+06  0.3725290E-06  0.1164153E-09 -0.7438992E+07  0.1228335E+05  0.2636675E+01 -0.3506616E-01 -0.4453633E+05 -0.1378440E+05 -0.1509571E+03 -0.4207499E+01 -0.6545933E+09  0.8085776E+06  0.4963704E-06  0.7627023E-08
  0.8199999E+00  0.7606375E+07  0.1874385E+05 -0.3403083E+00 -0.3163719E-01  0.3098486E+06  0.1646961E+06 -0.2263511E+00 -0.1293651E+00 -0.1070625E+08  0.1309282E+06  0.3634430E-07  0.1018634E-08 -0.7652791E+07  0.1126901E+05  0.2262022E+01 -0.2469981E+00 -0.3978170E+05 -0.1366691E+05 -0.9059371E+02 -0.6154754E+01 -0.6733873E+09  0.7435365E+06  0.1322308E-05 -0.2734487E-07
  0.8400000E+00  0.7850682E+07  0.1665348E+05 -0.1774961E+01 -0.4337311E-02  0.2966466E+06  0.1655318E+06  0.1208351E+00  0.2331471E+00 -0.1098390E+08  0.1265223E+06 -0.3015711E-06  0.1222361E-08 -0.7868386E+07  0.9562613E+04 -0.2368536E-01  0.2210298E-01 -0.4262679E+05 -0.1413372E+05  0.1906662E+02  0.1044970E+02 -0.6923770E+09  0.6389078E+06 -0.1477803E-05  0.1552507E-07
  0.8600000E+00  0.8069816E+07  0.1707163E+05  0.2271076E-01 -0.5168915E-02  0.2996081E+06  0.1689722E+06 -0.8282328E-01 -0.2464604E-01 -0.1129654E+08  0.1149976E+06 -0.6930772E-07  0.8731149E-10 -0.8114250E+07  0.6558789E+04 -0.3301099E+01 -0.2024207E+00 -0.3987391E+05 -0.1467345E+05  0.1543485E+03  0.4548142E+01 -0.7139077E+09  0.4384460E+06 -0.4140147E-06  0.8149073E-09
  0.8800000E+00  0.8270552E+07  0.1844252E+05 -0.8081610E+00 -0.1898289E-02  0.3070982E+06  0.1704993E+06  0.6963556E-01 -0.2318618E+00 -0.1158856E+08  0.1095183E+06 -0.3386628E-07 -0.3201421E-09 -0.8323928E+07  0.3633932E+04 -0.1669699E+01 -0.1173208E+00 -0.3513872E+05 -0.1500003E+05  0.2242912E+01  0.5270285E+01 -0.7322406E+09  0.2470982E+06 -0.9244238E-07 -0.8287316E-08
  0.9000000E+00  0.8374524E+07  0.2234883E+05  0.1931424E+00  0.5502701E-02  0.3015041E+06  0.1688371E+06  0.4197862E-01  0.3972968E+00 -0.1166999E+08  0.1319885E+06 -0.2152390E-06  0.2910383E-09 -0.8389010E+07  0.3710977E+04  0.2430290E+01 -0.1067251E+00 -0.3890631E+05 -0.1479581E+05  0.3681178E+02  0.4705506E+00 -0.7379794E+09  0.2578876E+06 -0.2120605E-05 -0.7446943E-08
  0.9200000E+00  0.8446034E+07  0.2783206E+05  0.1033882E+01  0.6847572E-01  0.2931219E+06  0.1680689E+06 -0.2952244E-01 -0.2908064E+00 -0.1160071E+08  0.1677312E+06  0.1619691E-06  0.0000000E+00 -0.8431515E+07  0.5991923E+04  0.2432676E+01 -0.1284298E+00 -0.4298572E+05 -0.1481826E+05 -0.1068937E+03 -0.3889894E+01 -0.7417592E+09  0.4131312E+06  0.6628239E-07 -0.1070566E-07
  0.9400000E+00  0.8783480E+07  0.2792644E+05 -0.9022814E+00 -0.3884411E-01  0.3002479E+06  0.1714392E+06  0.1188238E-01  0.1496613E-01 -0.1201417E+08  0.1652664E+06  0.1585230E-07 -0.2037268E-09 -0.8804048E+07  0.2881458E+04  0.2905841E+01 -0.7104343E-01 -0.3855966E+05 -0.1424085E+05  0.2853632E+03  0.2058007E+01 -0.7744650E+09  0.1750768E+06  0.1717645E-05  0.2587421E-07
  0.9600000E+00  0.9118041E+07  0.2424529E+05  0.1045736E+01  0.2473927E-01  0.3025572E+06  0.1775522E+06  0.2812068E+00  0.1266553E+00 -0.1241996E+08  0.1662431E+06 -0.1862645E-06  0.2910383E-09 -0.9129269E+07  0.2031273E+04 -0.2434434E+01 -0.4106130E-01 -0.3485679E+05 -0.1403627E+05 -0.3632237E+03 -0.9912572E+01 -0.8031292E+09  0.9741478E+05  0.3977338E-05  0.1838998E-08
  0.9800000E+00  0.9491379E+07  0.2261100E+05  0.4653619E+00  0.1729012E-01  0.3045637E+06  0.1780501E+06  0.7280622E-01  0.6551671E-01 -0.1294426E+08  0.1523965E+06  0.7602633E-07  0.1105946E-08 -0.9501478E+07  0.1969637E+04  0.1606587E+01 -0.1564285E+00 -0.3959994E+05 -0.1559481E+05 -0.5852189E+03  0.2925140E+01 -0.8359601E+09  0.1001528E+06 -0.2093100E-05  0.2326487E-08
  0.1000000E+01  0.9869989E+07  0.2497483E+05 -0.1513672E-01 -0.7849693E-02  0.3105931E+06  0.1781645E+06 -0.1586914E-01  0.1709461E-02 -0.1357261E+08  0.1451037E+06 -0.3427267E-06  0.7566996E-09 -0.9897818E+07  0.8757497E+03  0.6401891E+01 -0.1116741E+00 -0.3544251E+05 -0.1529557E+05  0.8692191E+03 -0.6027545E+01 -0.8708164E+09  0.4353595E+05  0.1970810E-05  0.3191417E-07
  0.1020000E+01  0.1014677E+08  0.2829222E+05 -0.3499349E+00  0.4153347E-01  0.3117836E+06  0.1769295E+06  0.1201555E+00  0.1344368E+00 -0.1402817E+08  0.1423590E+06 -0.2483527E-06  0.5267793E-08 -0.1017586E+08  0.2360316E+04 -0.3995175E+00 -0.1204980E+00 -0.3142340E+05 -0.1495541E+05 -0.3552117E+03  0.6441963E+01 -0.8952481E+09  0.1737901E+06 -0.6885205E-06  0.6691607E-09
  0.1040000E+01  0.1017099E+08  0.3356537E+05 -0.1399114E+01  0.7914543E-02  0.2913578E+06  0.1643931E+06 -0.1598652E+00 -0.9614229E-02 -0.1409500E+08  0.1813133E+06 -0.2865608E-06 -0.4860340E-08 -0.1017220E+08  0.6106361E+04 -0.2118029E+01  0.3854769E-01 -0.3578854E+05 -0.1488820E+05 -0.1625500E+03 -0.5288702E+01 -0.8950396E+09  0.4992483E+06 -0.9829959E-06 -0.1348667E-07
  0.1060000E+01  0.1015673E+08  0.3644146E+05  0.4868993E+00  0.7619858E-03  0.2770890E+06  0.1515711E+06  0.1866755E+00  0.1395537E+00 -0.1408625E+08  0.2021816E+06  0.9840390E-06 -0.1688022E-08 -0.1016570E+08  0.7368729E+04  0.1656254E+01 -0.2468688E+00 -0.4063116E+05 -0.1588332E+05 -0.2266610E+03 -0.1183557E+02 -0.8945236E+09  0.6098495E+06  0.1928549E-06 -0.8969778E-08
  0.1080000E+01  0.1046397E+08  0.3082314E+05 -0.1532661E+00 -0.2203941E-01  0.2791000E+06  0.1418503E+06  0.2613209E+00 -0.1029840E+00 -0.1457707E+08  0.1466359E+06 -0.2207579E-06 -0.9313226E-09 -0.1055056E+08 -0.4595699E+04  0.7197961E+00  0.9562991E-01 -0.3667383E+05 -0.1410184E+05  0.1265108E+03 -0.7955893E+01 -0.9283405E+09 -0.3432210E+06  0.1150404E-05  0.1783707E-07
  0.1100000E+01  0.1108166E+08  0.2065445E+05 -0.1573597E+01  0.5642891E-02  0.2903017E+06  0.1363325E+06 -0.1220703E+00  0.1310704E+00 -0.1565212E+08  0.1034452E+05 -0.1354651E-06 -0.1222361E-08 -0.1124432E+08 -0.1950600E+05  0.1425470E+01  0.2735834E-01 -0.3009938E+05 -0.1103278E+05  0.3426202E+03  0.5323158E+01 -0.9893665E+09 -0.1412072E+07 -0.2797233E-05 -0.2450179E-08
  0.1120000E+01  0.1184994E+08  0.4208788E+04  0.5323138E+00 -0.1500130E-01  0.2914355E+06  0.1238489E+06 -0.2038138E-01  0.3093301E+00 -0.1696731E+08 -0.1026704E+06  0.7982765E-06 -0.5238689E-09 -0.1205802E+08 -0.2961283E+05 -0.4947206E+00 -0.2702845E-01 -0.3853457E+05 -0.1540590E+05 -0.3438239E+03 -0.1797987E+01 -0.1061036E+10 -0.2052722E+07  0.1106350E-05  0.9841642E-08
  0.1140000E+01  0.1279796E+08 -0.1025160E+05  0.8951823E+00 -0.3037453E-02  0.3111450E+06  0.1254977E+06  0.1507675E+00  0.1990569E+00 -0.1844490E+08 -0.1707023E+06  0.5489902E-06 -0.4947651E-09 -0.1305213E+08 -0.3743038E+05 -0.5881495E+01 -0.1981413E+00 -0.3769981E+05 -0.1571954E+05 -0.2467019E+01  0.1784376E+01 -0.1148404E+10 -0.2547128E+07 -0.1559155E-05 -0.2639172E-07
  0.1160000E+01  0.1412020E+08 -0.4948603E+05 -0.1801169E+01 -0.8986950E-02  0.3415666E+06  0.1184176E+06 -0.4009378E-01  0.3908062E-01 -0.2047566E+08 -0.2207654E+06  0.6165998E-06  0.2022716E-08 -0.1438593E+08 -0.2345803E+05 -0.2556646E+01  0.1641720E+00 -0.3153582E+05 -0.1245503E+05  0.1047721E+04  0.6127804E+01 -0.1265903E+10 -0.1210599E+07  0.5027354E-05  0.2207798E-08
  0.1180000E+01  0.1495948E+08 -0.7807552E+05 -0.1305532E+01 -0.1130295E-01  0.3523593E+06  0.1188991E+06  0.1344842E-02  0.6588960E-01 -0.2167056E+08 -0.2158288E+06 -0.3283307E-06  0.2328306E-09 -0.1520523E+08 -0.1851180E+05  0.2856247E+01 -0.3815984E-01 -0.2841187E+05 -0.1113663E+05 -0.2766201E+03  0.1198726E+02 -0.1337833E+10 -0.6905541E+06  0.1775482E-05  0.2392426E-08
  0.1200000E+01  0.1514222E+08 -0.8810806E+05  0.9147135E+00 -0.1570892E-01  0.3214816E+06  0.9554834E+05  0.1052856E+00 -0.1255941E-01 -0.2187402E+08 -0.1717194E+06  0.4967054E-07 -0.1688022E-08 -0.1531007E+08  0.1590167E+04 -0.2160747E+01  0.4904411E-01 -0.3500406E+05 -0.1406728E+05 -0.2828481E+03  0.4894687E+01 -0.1347267E+10  0.1117904E+07 -0.2002107E-05 -0.1046465E-07
  0.1220000E+01  0.1541492E+08 -0.1006813E+06 -0.2081999E+01 -0.4077911E-02  0.3060686E+06  0.7422665E+05  0.8554927E-01 -0.1188650E+00 -0.2224300E+08 -0.1566472E+06  0.3664220E-06  0.7101335E-08 -0.1556895E+08  0.2483115E+05 -0.7181471E+01 -0.1342872E+00 -0.4068855E+05 -0.1987860E+05  0.2622969E+03  0.1615798E+01 -0.1370268E+10  0.3146350E+07 -0.1268736E-05 -0.2488196E-07
  0.1240000E+01  0.1661091E+08 -0.7955423E+05 -0.2283896E+00  0.1230431E-01  0.3022506E+06  0.5742270E+05  0.8233839E+00  0.3166533E-01 -0.2407994E+08 -0.4512149E+06 -0.2884096E-06 -0.1746230E-08 -0.1689725E+08 -0.3645418E+05 -0.1213489E+01  0.8790235E-01 -0.3962286E+05 -0.1894503E+05  0.1086837E+04  0.9170887E+01 -0.1487058E+10 -0.2031692E+07  0.1886726E-05  0.2350680E-07
  0.1260000E+01  0.1847962E+08 -0.8926377E+05 -0.2463108E+01 -0.2570915E-01  0.3058604E+06  0.4410724E+05 -0.1327660E+01  0.1266327E+00 -0.2695838E+08 -0.8005655E+06  0.1229937E-05  0.8149073E-09 -0.1891011E+08 -0.9925957E+05 -0.1239048E+02  0.5127743E-01 -0.2777768E+05 -0.1024972E+05  0.1390134E+04  0.2512853E+01 -0.1664169E+10 -0.7091178E+07  0.1396938E-05 -0.1404442E-07
  0.1280000E+01  0.2097843E+08 -0.1733243E+06  0.1074982E+01  0.5798340E-02  0.3126626E+06  0.4738277E+05 -0.7591248E+00 -0.7514048E-01 -0.3082750E+08 -0.1079753E+07 -0.9313226E-06 -0.7799827E-08 -0.2151726E+08 -0.1023540E+06 -0.1495152E+02  0.7860921E-01 -0.2226797E+05 -0.6321705E+04  0.1104934E+03  0.4951178E+00 -0.1893740E+10 -0.6952094E+07 -0.3542982E-05  0.3728383E-07
  0.1300000E+01  0.2380754E+08 -0.3625182E+06 -0.8097957E+00 -0.2168274E-01  0.2889940E+06 -0.5927060E+04 -0.3419847E+00  0.4183769E-01 -0.3512728E+08 -0.1313334E+07 -0.1833989E-05 -0.1955777E-07 -0.2442092E+08  0.5837571E+04  0.1142920E+02  0.6608069E-02 -0.3298302E+05 -0.2596926E+05 -0.7980453E+03  0.3830942E+00 -0.2149780E+10  0.3145038E+07  0.1769849E-06 -0.7257040E-07
  0.1320000E+01  0.2836080E+08 -0.7223506E+06  0.7501775E+00 -0.7881165E-01  0.3134412E+06 -0.2107685E+05 -0.1616507E+00  0.1580009E+00 -0.4202480E+08 -0.1362852E+07 -0.5418604E-06 -0.3725290E-08 -0.2916848E+08  0.2175679E+06  0.1069434E+02 -0.3996155E-01 -0.2644939E+05 -0.2624714E+05 -0.1404713E+04 -0.3635847E+01 -0.2567474E+10  0.2274622E+08  0.3056850E-05  0.1423414E-06
  0.1340000E+01  0.3550297E+08 -0.1338686E+07 -0.6585238E+01 -0.5474854E-01  0.3714136E+06 -0.8150427E+05  0.2565298E+00 -0.4738617E-01 -0.5274348E+08 -0.1399602E+07  0.3558486E-06 -0.5215406E-07 -0.3645128E+08  0.6601831E+06  0.1933881E+02 -0.3079653E+00 -0.6352641E+04 -0.7078250E+04  0.3961259E+03 -0.1393640E+02 -0.3209090E+10  0.6243818E+08 -0.9515323E-06  0.1969347E-06
  0.1360000E+01  0.4351963E+08 -0.2672330E+07 -0.3216912E+00 -0.1178589E+00  0.4022873E+06 -0.1091036E+06 -0.1098633E+00  0.3779602E+00 -0.6471554E+08 -0.3102001E+06 -0.7888850E-06  0.1229346E-06 -0.4461059E+08  0.1763965E+07 -0.1088968E+02 -0.8125753E+00  0.8415975E+04  0.3706987E+04 -0.2549521E+04  0.3041430E+02 -0.3926842E+10  0.1610103E+09  0.2001680E-05 -0.9770192E-06
  0.1380000E+01  0.4943458E+08 -0.4188789E+07 -0.1698370E+00  0.1961670E+00  0.2251892E+06 -0.2609060E+06  0.7147305E+00  0.1529541E+00 -0.7338804E+08  0.1257318E+07 -0.1036602E-05  0.7450581E-08 -0.5033446E+08  0.3146158E+07 -0.3456575E+01  0.1259899E-01 -0.1556670E+05 -0.3178197E+05 -0.1977154E+04 -0.1655132E+03 -0.4431547E+10  0.2843606E+09  0.8410353E-05  0.2963243E-06
  0.1400000E+01  0.5705735E+08 -0.7071380E+07 -0.3205915E+01  0.4445801E+00  0.1736889E+06 -0.3901967E+06  0.3353446E+01 -0.3748169E+00 -0.8462018E+08  0.4429262E+07  0.8514949E-06  0.3725290E-06 -0.5790007E+08  0.6004199E+07 -0.1463914E+02 -0.1471103E+01 -0.4691210E+04 -0.5193467E+05  0.4641589E+03  0.1123088E+03 -0.5099366E+10  0.5354068E+09 -0.1615877E-04 -0.9985379E-06
  0.1420000E+01  0.9010714E+08 -0.1284765E+08 -0.1211488E+02 -0.1327148E+01 -0.3882443E+05 -0.7015970E+06 -0.2329308E+01 -0.2197266E+00 -0.1337823E+09  0.7772856E+07  0.5037012E-05 -0.5960464E-06 -0.9162770E+08  0.1086323E+08 -0.6490427E+02  0.2196910E+01 -0.4267725E+05 -0.1389267E+06  0.1156487E+04 -0.5189405E+02 -0.8069882E+10  0.9701593E+09 -0.1157234E-04  0.1889610E-05
  0.1440000E+01  0.1009748E+10 -0.1124696E+09  0.2703993E+02 -0.6695312E+01 -0.3101587E+07 -0.8341220E+07  0.1920573E+02  0.1053223E+02 -0.1503064E+10  0.9221888E+07 -0.3708733E-04  0.4768372E-06 -0.1034418E+10  0.8466658E+08 -0.3732096E+03  0.5067201E+02  0.3754288E+06 -0.9693386E+06 -0.3623569E+05 -0.2249191E+04 -0.9110163E+11  0.7619430E+10  0.3636824E-03  0.3428198E-05
  0.1460000E+01 -0.9201428E+08 -0.3154015E+07  0.8042594E+01 -0.1318359E+00  0.5183787E+06  0.8962844E+06  0.3052092E+01  0.1395142E+01  0.1363403E+09  0.2182707E+08  0.4899012E-06  0.2384186E-06  0.9440134E+08  0.6584945E+07  0.1506142E+02 -0.1653062E+01 -0.1098262E+06 -0.1746792E+05  0.5615554E+04 -0.8350137E+02  0.8315950E+10  0.5629646E+09 -0.3839274E-05  0.1510605E-05
  0.1480000E+01 -0.5045078E+08 -0.1556003E+07 -0.4175465E+01  0.2849121E+00  0.3982285E+06  0.4932993E+06  0.3619220E+00 -0.1093735E+01  0.7474689E+08  0.1258808E+08  0.2094217E-05 -0.1229346E-06  0.5180503E+08  0.3638797E+07  0.1061982E+02  0.4654409E+00 -0.7207820E+05 -0.5974610E+04  0.1703997E+04 -0.6209431E+02  0.4564046E+10  0.3110632E+09  0.7276351E-05  0.4053072E-06
  0.1500000E+01 -0.3478088E+08 -0.1625398E+07  0.2393229E+01  0.1479492E+00  0.4074498E+06  0.4545441E+06  0.4801432E+00  0.1493057E+01  0.5152800E+08  0.9817957E+07 -0.2781550E-05  0.2384186E-06  0.3562007E+08  0.3128849E+07 -0.2956915E+01  0.6875592E-01 -0.5988233E+05  0.3614061E+05  0.2103881E+04  0.1630757E+02  0.3139450E+10  0.2693462E+09  0.6073019E-05  0.3806344E-06
  0.1520000E+01 -0.2607409E+08 -0.1328269E+07 -0.2437551E+01 -0.2961426E+00  0.3501962E+06  0.3239205E+06  0.2389205E+01 -0.1167297E-01  0.3878906E+08  0.7864005E+07  0.1411689E-05  0.3725290E-08  0.2675524E+08  0.2605602E+07  0.6026576E+01  0.4570187E+00 -0.5561718E+05  0.1753974E+05  0.1264940E+04 -0.2056979E+02  0.2358096E+10  0.2240523E+09 -0.2814003E-05  0.1722619E-06
  0.1540000E+01 -0.2036028E+08 -0.8186871E+06 -0.1468649E+01  0.2505493E+00  0.2901540E+06  0.2746579E+06 -0.8321391E+00 -0.6134644E+00  0.3034102E+08  0.6196635E+07 -0.4644518E-06 -0.3352761E-07  0.2087538E+08  0.1868495E+07 -0.2148921E+01  0.3022872E+00 -0.5431686E+05 -0.1326915E+05  0.4625781E+03 -0.1301249E+03  0.1840163E+10  0.1605754E+09 -0.2530285E-07 -0.1816989E-06
  0.1560000E+01 -0.1723572E+08 -0.9228622E+06  0.2892128E+00  0.1444702E+00  0.2475406E+06  0.2180256E+06 -0.8903308E+00 -0.2403412E+00  0.2562114E+08  0.5837082E+07  0.1222659E-05 -0.4470348E-07  0.1765764E+08  0.1887403E+07 -0.6843060E+00  0.2856386E+00 -0.5016134E+05 -0.2668382E+05  0.1161833E+04  0.2037898E+02  0.1556431E+10  0.1627915E+09  0.4172215E-05 -0.3599416E-07