VARIABLES="X" "Y" "Z" "NX" "NY" "NZ" "A"
 ZONE N=        8280 , E=        3744  , F=FEPOINT,ET=QUADRILATERAL
  -0.1100000E+02   0.0000000E+00   0.0000000E+00   0.0000000E+00   0.0000000E+00   0.0000000E+00   0.0000000E+00
  -0.1095118E+02   0.1035191E+01   0.0000000E+00   0.0000000E+00   0.0000000E+00   0.0000000E+00   0.0000000E+00
  -0.1100000E+02   0.0000000E+00  -0.1000000E+01   0.0000000E+00   0.0000000E+00   0.0000000E+00   0.0000000E+00
  -0.1095118E+02   0.1035191E+01  -0.1000000E+01   0.0000000E+00   0.0000000E+00   0.0000000E+00   0.0000000E+00
  -0.1100000E+02   0.0000000E+00  -0.2000000E+01   0.0000000E+00   0.0000000E+00   0.0000000E+00   0.0000000E+00
  -0.1095118E+02   0.1035191E+01  -0.2000000E+01   0.0000000E+00   0.0000000E+00   0.0000000E+00   0.0000000E+00
  -0.1095118E+02   0.1035191E+01   0.0000000E+00   0.0000000E+00   0.0000000E+00   0.0000000E+00   0.0000000E+00
  -0.1081471E+02   0.2010478E+01   0.0000000E+00   0.0000000E+00   0.0000000E+00   0.0000000E+00   0.0000000E+00
  -0.1095118E+02   0.1035191E+01  -0.1000000E+01   0.0000000E+00   0.0000000E+00   0.0000000E+00   0.0000000E+00
  -0.1081471E+02   0.2010478E+01  -0.1000000E+01   0.0000000E+00   0.0000000E+00   0.0000000E+00   0.0000000E+00
  -0.1095118E+02   0.1035191E+01  -0.2000000E+01   0.0000000E+00   0.0000000E+00   0.0000000E+00   0.0000000E+00
  -0.1081471E+02   0.2010478E+01  -0.2000000E+01   0.0000000E+00   0.0000000E+00   0.0000000E+00   0.0000000E+00
  -0.1081471E+02   0.2010478E+01   0.0000000E+00   0.0000000E+00   0.0000000E+00   0.0000000E+00   0.0000000E+00
  -0.1059443E+02   0.2959419E+01   0.0000000E+00   0.0000000E+00   0.0000000E+00   0.0000000E+00   0.0000000E+00
  -0.1081471E+02   0.2010478E+01  -0.1000000E+01   0.0000000E+00   0.0000000E+00   0.0000000E+00   0.0000000E+00
  -0.1059443E+02   0.2959419E+01  -0.1000000E+01   0.0000000E+00   0.0000000E+00   0.0000000E+00   0.0000000E+00
  -0.1081471E+02   0.2010478E+01  -0.2000000E+01   0.0000000E+00   0.0000000E+00   0.0000000E+00   0.0000000E+00
  -0.1059443E+02   0.2959419E+01  -0.2000000E+01   0.0000000E+00   0.0000000E+00   0.0000000E+00   0.0000000E+00
  -0.1059443E+02   0.2959419E+01   0.0000000E+00   0.0000000E+00   0.0000000E+00   0.0000000E+00   0.0000000E+00
  -0.1029105E+02   0.3885148E+01   0.0000000E+00   0.0000000E+00   0.0000000E+00   0.0000000E+00   0.0000000E+00
  -0.1059443E+02   0.2959419E+01  -0.1000000E+01   0.0000000E+00   0.0000000E+00   0.0000000E+00   0.0000000E+00
  -0.1029105E+02   0.3885148E+01  -0.1000000E+01   0.0000000E+00   0.0000000E+00   0.0000000E+00   0.0000000E+00
  -0.1059443E+02   0.2959419E+01  -0.2000000E+01   0.0000000E+00   0.0000000E+00   0.0000000E+00   0.0000000E+00
  -0.1029105E+02   0.3885148E+01  -0.2000000E+01   0.0000000E+00   0.0000000E+00   0.0000000E+00   0.0000000E+00
  -0.1029105E+02   0.3885148E+01   0.0000000E+00   0.0000000E+00   0.0000000E+00   0.0000000E+00   0.0000000E+00
  -0.9906953E+01   0.4780406E+01   0.0000000E+00   0.0000000E+00   0.0000000E+00   0.0000000E+00   0.0000000E+00
  -0.1029105E+02   0.3885148E+01  -0.1000000E+01   0.0000000E+00   0.0000000E+00   0.0000000E+00   0.0000000E+00
  -0.9906953E+01   0.4780406E+01  -0.1000000E+01   0.0000000E+00   0.0000000E+00   0.0000000E+00   0.0000000E+00
  -0.1029105E+02   0.3885148E+01  -0.2000000E+01   0.0000000E+00   0.0000000E+00   0.0000000E+00   0.0000000E+00
  -0.9906953E+01   0.4780406E+01  -0.2000000E+01   0.0000000E+00   0.0000000E+00   0.0000000E+00   0.0000000E+00
  -0.9906953E+01   0.4780406E+01   0.0000000E+00   0.0000000E+00   0.0000000E+00   0.0000000E+00   0.0000000E+00
  -0.9453041E+01   0.5624946E+01   0.0000000E+00   0.0000000E+00   0.0000000E+00   0.0000000E+00   0.0000000E+00
  -0.9906953E+01   0.4780406E+01  -0.1000000E+01   0.0000000E+00   0.0000000E+00   0.0000000E+00   0.0000000E+00
  -0.9453041E+01   0.5624946E+01  -0.1000000E+01   0.0000000E+00   0.0000000E+00   0.0000000E+00   0.0000000E+00
  -0.9906953E+01   0.4780406E+01  -0.2000000E+01   0.0000000E+00   0.0000000E+00   0.0000000E+00   0.0000000E+00
  -0.9453041E+01   0.5624946E+01  -0.2000000E+01   0.0000000E+00   0.0000000E+00   0.0000000E+00   0.0000000E+00
  -0.9453041E+01   0.5624946E+01   0.0000000E+00   0.0000000E+00   0.0000000E+00   0.0000000E+00   0.0000000E+00
  -0.8933870E+01   0.6417630E+01   0.0000000E+00   0.0000000E+00   0.0000000E+00   0.0000000E+00   0.0000000E+00
  -0.9453041E+01   0.5624946E+01  -0.1000000E+01   0.0000000E+00   0.0000000E+00   0.0000000E+00   0.0000000E+00
  -0.8933870E+01   0.6417630E+01  -0.1000000E+01   0.0000000E+00   0.0000000E+00   0.0000000E+00   0.0000000E+00
  -0.9453041E+01   0.5624946E+01  -0.2000000E+01   0.0000000E+00   0.0000000E+00   0.0000000E+00   0.0000000E+00
  -0.8933870E+01   0.6417630E+01  -0.2000000E+01   0.0000000E+00   0.0000000E+00   0.0000000E+00   0.0000000E+00
  -0.8933870E+01   0.6417630E+01   0.0000000E+00   0.0000000E+00   0.0000000E+00   0.0000000E+00   0.0000000E+00
  -0.8348404E+01   0.7162691E+01   0.0000000E+00   0.0000000E+00   0.0000000E+00   0.0000000E+00   0.0000000E+00
  -0.8933870E+01   0.6417630E+01  -0.1000000E+01   0.0000000E+00   0.0000000E+00   0.0000000E+00   0.0000000E+00
  -0.8348404E+01   0.7162691E+01  -0.1000000E+01   0.0000000E+00   0.0000000E+00   0.0000000E+00   0.0000000E+00
  -0.8933870E+01   0.6417630E+01  -0.2000000E+01   0.0000000E+00   0.0000000E+00   0.0000000E+00   0.0000000E+00
  -0.8348404E+01   0.7162691E+01  -0.2000000E+01   0.0000000E+00   0.0000000E+00   0.0000000E+00   0.0000000E+00
  -0.8348404E+01   0.7162691E+01   0.0000000E+00   0.0000000E+00   0.0000000E+00   0.0000000E+00   0.0000000E+00
  -0.7700989E+01   0.7854601E+01   0.0000000E+00   0.0000000E+00   0.0000000E+00   0.0000000E+00   0.0000000E+00
  -0.8348404E+01   0.7162691E+01  -0.1000000E+01   0.0000000E+00   0.0000000E+00   0.0000000E+00   0.0000000E+00
  -0.7700989E+01   0.7854601E+01  -0.1000000E+01   0.0000000E+00   0.0000000E+00   0.0000000E+00   0.0000000E+00
  -0.8348404E+01   0.7162691E+01  -0.2000000E+01   0.0000000E+00   0.0000000E+00   0.0000000E+00   0.0000000E+00
  -0.7700989E+01   0.7854601E+01  -0.2000000E+01   0.0000000E+00   0.0000000E+00   0.0000000E+00   0.0000000E+00
  -0.7700989E+01   0.7854601E+01   0.0000000E+00   0.0000000E+00   0.0000000E+00   0.0000000E+00   0.0000000E+00
  -0.6996428E+01   0.8488227E+01   0.0000000E+00   0.0000000E+00   0.0000000E+00   0.0000000E+00   0.0000000E+00
  -0.7700989E+01   0.7854601E+01  -0.1000000E+01   0.0000000E+00   0.0000000E+00   0.0000000E+00   0.0000000E+00
  -0.6996428E+01   0.8488227E+01  -0.1000000E+01   0.0000000E+00   0.0000000E+00   0.0000000E+00   0.0000000E+00
  -0.7700989E+01   0.7854601E+01  -0.2000000E+01   0.0000000E+00   0.0000000E+00   0.0000000E+00   0.0000000E+00
  -0.6996428E+01   0.8488227E+01  -0.2000000E+01   0.0000000E+00   0.0000000E+00   0.0000000E+00   0.0000000E+00
  -0.6996428E+01   0.8488227E+01   0.0000000E+00   0.0000000E+00   0.0000000E+00   0.0000000E+00   0.0000000E+00
  -0.6239950E+01   0.9058865E+01   0.0000000E+00   0.0000000E+00   0.0000000E+00   0.0000000E+00   0.0000000E+00
  -0.6996428E+01   0.8488227E+01  -0.1000000E+01   0.0000000E+00   0.0000000E+00   0.0000000E+00   0.0000000E+00
  -0.6239950E+01   0.9058865E+01  -0.1000000E+01   0.0000000E+00   0.0000000E+00   0.0000000E+00   0.0000000E+00
  -0.6996428E+01   0.8488227E+01  -0.2000000E+01   0.0000000E+00   0.0000000E+00   0.0000000E+00   0.0000000E+00
  -0.6239950E+01   0.9058865E+01  -0.2000000E+01   0.0000000E+00   0.0000000E+00   0.0000000E+00   0.0000000E+00
  -0.6239950E+01   0.9058865E+01   0.0000000E+00   0.0000000E+00   0.0000000E+00   0.0000000E+00   0.0000000E+00
  -0.5437168E+01   0.9562280E+01   0.0000000E+00   0.0000000E+00   0.0000000E+00   0.0000000E+00   0.0000000E+00
  -0.6239950E+01   0.9058865E+01  -0.1000000E+01   0.0000000E+00   0.0000000E+00   0.0000000E+00   0.0000000E+00
  -0.5437168E+01   0.9562280E+01  -0.1000000E+01   0.0000000E+00   0.0000000E+00   0.0000000E+00   0.0000000E+00
  -0.6239950E+01   0.9058865E+01  -0.2000000E+01   0.0000000E+00   0.0000000E+00   0.0000000E+00   0.0000000E+00
  -0.5437168E+01   0.9562280E+01  -0.2000000E+01   0.0000000E+00   0.0000000E+00   0.0000000E+00   0.0000000E+00
  -0.5437168E+01   0.9562280E+01   0.0000000E+00   0.0000000E+00   0.0000000E+00   0.0000000E+00   0.0000000E+00
  -0.4594039E+01   0.9994739E+01   0.0000000E+00   0.0000000E+00   0.0000000E+00   0.0000000E+00   0.0000000E+00
  -0.5437168E+01   0.9562280E+01  -0.1000000E+01   0.0000000E+00   0.0000000E+00   0.0000000E+00   0.0000000E+00
  -0.4594039E+01   0.9994739E+01  -0.1000000E+01   0.0000000E+00   0.0000000E+00   0.0000000E+00   0.0000000E+00
  -0.5437168E+01   0.9562280E+01  -0.2000000E+01   0.0000000E+00   0.0000000E+00   0.0000000E+00   0.0000000E+00
  -0.4594039E+01   0.9994739E+01  -0.2000000E+01   0.0000000E+00   0.0000000E+00   0.0000000E+00   0.0000000E+00
  -0.4594039E+01   0.9994739E+01   0.0000000E+00   0.0000000E+00   0.0000000E+00   0.0000000E+00   0.0000000E+00
  -0.3716820E+01   0.1035303E+02   0.0000000E+00   0.0000000E+00   0.0000000E+00   0.0000000E+00   0.0000000E+00
  -0.4594039E+01   0.9994739E+01  -0.1000000E+01   0.0000000E+00   0.0000000E+00   0.0000000E+00   0.0000000E+00
  -0.3716820E+01   0.1035303E+02  -0.1000000E+01   0.0000000E+00   0.0000000E+00   0.0000000E+00   0.0000000E+00
  -0.4594039E+01   0.9994739E+01  -0.2000000E+01   0.0000000E+00   0.0000000E+00   0.0000000E+00   0.0000000E+00
  -0.3716820E+01   0.1035303E+02  -0.2000000E+01   0.0000000E+00   0.0000000E+00   0.0000000E+00   0.0000000E+00
  -0.3716820E+01   0.1035303E+02   0.0000000E+00   0.0000000E+00   0.0000000E+00   0.0000000E+00   0.0000000E+00
  -0.2812021E+01   0.1063450E+02   0.0000000E+00   0.0000000E+00   0.0000000E+00   0.0000000E+00   0.0000000E+00
  -0.3716820E+01   0.1035303E+02  -0.1000000E+01   0.0000000E+00   0.0000000E+00   0.0000000E+00   0.0000000E+00
  -0.2812021E+01   0.1063450E+02  -0.1000000E+01   0.0000000E+00   0.0000000E+00   0.0000000E+00   0.0000000E+00
  -0.3716820E+01   0.1035303E+02  -0.2000000E+01   0.0000000E+00   0.0000000E+00   0.0000000E+00   0.0000000E+00
  -0.2812021E+01   0.1063450E+02  -0.2000000E+01   0.0000000E+00   0.0000000E+00   0.0000000E+00   0.0000000E+00
  -0.2812021E+01   0.1063450E+02   0.0000000E+00   0.0000000E+00   0.0000000E+00   0.0000000E+00   0.0000000E+00
  -0.1886354E+01   0.1083705E+02   0.0000000E+00   0.0000000E+00   0.0000000E+00   0.0000000E+00   0.0000000E+00
  -0.2812021E+01   0.1063450E+02  -0.1000000E+01   0.0000000E+00   0.0000000E+00   0.0000000E+00   0.0000000E+00
  -0.1886354E+01   0.1083705E+02  -0.1000000E+01   0.0000000E+00   0.0000000E+00   0.0000000E+00   0.0000000E+00
  -0.2812021E+01   0.1063450E+02  -0.2000000E+01   0.0000000E+00   0.0000000E+00   0.0000000E+00   0.0000000E+00
  -0.1886354E+01   0.1083705E+02  -0.2000000E+01   0.0000000E+00   0.0000000E+00   0.0000000E+00   0.0000000E+00
  -0.1886354E+01   0.1083705E+02   0.0000000E+00   0.0000000E+00   0.0000000E+00   0.0000000E+00   0.0000000E+00
  -0.8849261E+00   0.1096435E+02   0.0000000E+00   0.0000000E+00   0.0000000E+00   0.0000000E+00   0.0000000E+00
  -0.1886354E+01   0.1083705E+02  -0.1000000E+01   0.0000000E+00   0.0000000E+00   0.0000000E+00   0.0000000E+00
  -0.8849261E+00   0.1096435E+02  -0.1000000E+01   0.0000000E+00   0.0000000E+00   0.0000000E+00   0.0000000E+00
  -0.1886354E+01   0.1083705E+02  -0.2000000E+01   0.0000000E+00   0.0000000E+00   0.0000000E+00   0.0000000E+00
  -0.8849261E+00   0.1096435E+02  -0.2000000E+01   0.0000000E+00   0.0000000E+00   0.0000000E+00   0.0000000E+00
  -0.8849260E+00   0.1096435E+02   0.0000000E+00   0.0000000E+00   0.0000000E+00   0.0000000E+00   0.0000000E+00
   0.0000000E+00   0.1100000E+02   0.0000000E+00   0.0000000E+00   0.0000000E+00   0.0000000E+00   0.0000000E+00
  -0.8849260E+00   0.1096435E+02  -0.1000000E+01   0.0000000E+00   0.0000000E+00   0.0000000E+00   0.0000000E+00
   0.0000000E+00   0.1100000E+02  -0.1000000E+01   0.0000000E+00   0.0000000E+00   0.0000000E+00   0.0000000E+00
  -0.8849260E+00   0.1096435E+02  -0.2000000E+01   0.0000000E+00   0.0000000E+00   0.0000000E+00   0.0000000E+00
   0.0000000E+00   0.1100000E+02  -0.2000000E+01   0.0000000E+00   0.0000000E+00   0.0000000E+00   0.0000000E+00
   0.0000000E+00   0.1100000E+02   0.0000000E+00   0.0000000E+00   0.0000000E+00   0.0000000E+00   0.0000000E+00
   0.1035191E+01   0.1095118E+02   0.0000000E+00   0.0000000E+00   0.0000000E+00   0.0000000E+00   0.0000000E+00
   0.0000000E+00   0.1100000E+02  -0.1000000E+01   0.0000000E+00   0.0000000E+00   0.0000000E+00   0.0000000E+00
   0.1035191E+01   0.1095118E+02  -0.1000000E+01   0.0000000E+00   0.0000000E+00   0.0000000E+00   0.0000000E+00
   0.0000000E+00   0.1100000E+02  -0.2000000E+01   0.0000000E+00   0.0000000E+00   0.0000000E+00   0.0000000E+00
   0.1035191E+01   0.1095118E+02  -0.2000000E+01   0.0000000E+00   0.0000000E+00   0.0000000E+00   0.0000000E+00
   0.1035191E+01   0.1095118E+02   0.0000000E+00   0.0000000E+00   0.0000000E+00   0.0000000E+00   0.0000000E+00
   0.2010478E+01   0.1081471E+02   0.0000000E+00   0.0000000E+00   0.0000000E+00   0.0000000E+00   0.0000000E+00
   0.1035191E+01   0.1095118E+02  -0.1000000E+01   0.0000000E+00   0.0000000E+00   0.0000000E+00   0.0000000E+00
   0.2010478E+01   0.1081471E+02  -0.1000000E+01   0.0000000E+00   0.0000000E+00   0.0000000E+00   0.0000000E+00
   0.1035191E+01   0.1095118E+02  -0.2000000E+01   0.0000000E+00   0.0000000E+00   0.0000000E+00   0.0000000E+00
   0.2010478E+01   0.1081471E+02  -0.2000000E+01   0.0000000E+00   0.0000000E+00   0.0000000E+00   0.0000000E+00
   0.2010478E+01   0.1081471E+02   0.0000000E+00   0.0000000E+00   0.0000000E+00   0.0000000E+00   0.0000000E+00
   0.2959419E+01   0.1059443E+02   0.0000000E+00   0.0000000E+00   0.0000000E+00   0.0000000E+00   0.0000000E+00
   0.2010478E+01   0.1081471E+02  -0.1000000E+01   0.0000000E+00   0.0000000E+00   0.0000000E+00   0.0000000E+00
   0.2959419E+01   0.1059443E+02  -0.1000000E+01   0.0000000E+00   0.0000000E+00   0.0000000E+00   0.0000000E+00
   0.2010478E+01   0.1081471E+02  -0.2000000E+01   0.0000000E+00   0.0000000E+00   0.0000000E+00   0.0000000E+00
   0.2959419E+01   0.1059443E+02  -0.2000000E+01   0.0000000E+00   0.0000000E+00   0.0000000E+00   0.0000000E+00
   0.2959419E+01   0.1059443E+02   0.0000000E+00   0.0000000E+00   0.0000000E+00   0.0000000E+00   0.0000000E+00
   0.3885148E+01   0.1029105E+02   0.0000000E+00   0.0000000E+00   0.0000000E+00   0.0000000E+00   0.0000000E+00
   0.2959419E+01   0.1059443E+02  -0.1000000E+01   0.0000000E+00   0.0000000E+00   0.0000000E+00   0.0000000E+00
   0.3885148E+01   0.1029105E+02  -0.1000000E+01   0.0000000E+00   0.0000000E+00   0.0000000E+00   0.0000000E+00
   0.2959419E+01   0.1059443E+02  -0.2000000E+01   0.0000000E+00   0.0000000E+00   0.0000000E+00   0.0000000E+00
   0.3885148E+01   0.1029105E+02  -0.2000000E+01   0.0000000E+00   0.0000000E+00   0.0000000E+00   0.0000000E+00
   0.3885148E+01   0.1029105E+02   0.0000000E+00   0.0000000E+00   0.0000000E+00   0.0000000E+00   0.0000000E+00
   0.4780406E+01   0.9906953E+01   0.0000000E+00   0.0000000E+00   0.0000000E+00   0.0000000E+00   0.0000000E+00
   0.3885148E+01   0.1029105E+02  -0.1000000E+01   0.0000000E+00   0.0000000E+00   0.0000000E+00   0.0000000E+00
   0.4780406E+01   0.9906953E+01  -0.1000000E+01   0.0000000E+00   0.0000000E+00   0.0000000E+00   0.0000000E+00
   0.3885148E+01   0.1029105E+02  -0.2000000E+01   0.0000000E+00   0.0000000E+00   0.0000000E+00   0.0000000E+00
   0.4780406E+01   0.9906953E+01  -0.2000000E+01   0.0000000E+00   0.0000000E+00   0.0000000E+00   0.0000000E+00
   0.4780406E+01   0.9906953E+01   0.0000000E+00   0.0000000E+00   0.0000000E+00   0.0000000E+00   0.0000000E+00
   0.5624946E+01   0.9453041E+01   0.0000000E+00   0.0000000E+00   0.0000000E+00   0.0000000E+00   0.0000000E+00
   0.4780406E+01   0.9906953E+01  -0.1000000E+01   0.0000000E+00   0.0000000E+00   0.0000000E+00   0.0000000E+00
   0.5624946E+01   0.9453041E+01  -0.1000000E+01   0.0000000E+00   0.0000000E+00   0.0000000E+00   0.0000000E+00
   0.4780406E+01   0.9906953E+01  -0.2000000E+01   0.0000000E+00   0.0000000E+00   0.0000000E+00   0.0000000E+00
   0.5624946E+01   0.9453041E+01  -0.2000000E+01   0.0000000E+00   0.0000000E+00   0.0000000E+00   0.0000000E+00
   0.5624946E+01   0.9453041E+01   0.0000000E+00   0.0000000E+00   0.0000000E+00   0.0000000E+00   0.0000000E+00
   0.6417630E+01   0.8933870E+01   0.0000000E+00   0.0000000E+00   0.0000000E+00   0.0000000E+00   0.0000000E+00
   0.5624946E+01   0.9453041E+01  -0.1000000E+01   0.0000000E+00   0.0000000E+00   0.0000000E+00   0.0000000E+00
   0.6417630E+01   0.8933870E+01  -0.1000000E+01   0.0000000E+00   0.0000000E+00   0.0000000E+00   0.0000000E+00
   0.5624946E+01   0.9453041E+01  -0.2000000E+01   0.0000000E+00   0.0000000E+00   0.0000000E+00   0.0000000E+00
   0.6417630E+01   0.8933870E+01  -0.2000000E+01   0.0000000E+00   0.0000000E+00   0.0000000E+00   0.0000000E+00
   0.6417630E+01   0.8933870E+01   0.0000000E+00   0.0000000E+00   0.0000000E+00   0.0000000E+00   0.0000000E+00
   0.7162691E+01   0.8348404E+01   0.0000000E+00   0.0000000E+00   0.0000000E+00   0.0000000E+00   0.0000000E+00
   0.6417630E+01   0.8933870E+01  -0.1000000E+01   0.0000000E+00   0.0000000E+00   0.0000000E+00   0.0000000E+00
   0.7162691E+01   0.8348404E+01  -0.1000000E+01   0.0000000E+00   0.0000000E+00   0.0000000E+00   0.0000000E+00
   0.6417630E+01   0.8933870E+01  -0.2000000E+01   0.0000000E+00   0.0000000E+00   0.0000000E+00   0.0000000E+00
   0.7162691E+01   0.8348404E+01  -0.2000000E+01   0.0000000E+00   0.0000000E+00   0.0000000E+00   0.0000000E+00
   0.7162691E+01   0.8348404E+01   0.0000000E+00   0.0000000E+00   0.0000000E+00   0.0000000E+00   0.0000000E+00
   0.7854601E+01   0.7700989E+01   0.0000000E+00   0.0000000E+00   0.0000000E+00   0.0000000E+00   0.0000000E+00
   0.7162691E+01   0.8348404E+01  -0.1000000E+01   0.0000000E+00   0.0000000E+00   0.0000000E+00   0.0000000E+00
   0.7854601E+01   0.7700989E+01  -0.1000000E+01   0.0000000E+00   0.0000000E+00   0.0000000E+00   0.0000000E+00
   0.7162691E+01   0.8348404E+01  -0.2000000E+01   0.0000000E+00   0.0000000E+00   0.0000000E+00   0.0000000E+00
   0.7854601E+01   0.7700989E+01  -0.2000000E+01   0.0000000E+00   0.0000000E+00   0.0000000E+00   0.0000000E+00
   0.7854601E+01   0.7700989E+01   0.0000000E+00   0.0000000E+00   0.0000000E+00   0.0000000E+00   0.0000000E+00
   0.8488227E+01   0.6996428E+01   0.0000000E+00   0.0000000E+00   0.0000000E+00   0.0000000E+00   0.0000000E+00
   0.7854601E+01   0.7700989E+01  -0.1000000E+01   0.0000000E+00   0.0000000E+00   0.0000000E+00   0.0000000E+00
   0.8488227E+01   0.6996428E+01  -0.1000000E+01   0.0000000E+00   0.0000000E+00   0.0000000E+00   0.0000000E+00
   0.7854601E+01   0.7700989E+01  -0.2000000E+01   0.0000000E+00   0.0000000E+00   0.0000000E+00   0.0000000E+00
   0.8488227E+01   0.6996428E+01  -0.2000000E+01   0.0000000E+00   0.0000000E+00   0.0000000E+00   0.0000000E+00
   0.8488227E+01   0.6996428E+01   0.0000000E+00   0.0000000E+00   0.0000000E+00   0.0000000E+00   0.0000000E+00
   0.9058865E+01   0.6239950E+01   0.0000000E+00   0.0000000E+00   0.0000000E+00   0.0000000E+00   0.0000000E+00
   0.8488227E+01   0.6996428E+01  -0.1000000E+01   0.0000000E+00   0.0000000E+00   0.0000000E+00   0.0000000E+00
   0.9058865E+01   0.6239950E+01  -0.1000000E+01   0.0000000E+00   0.0000000E+00   0.0000000E+00   0.0000000E+00
   0.8488227E+01   0.6996428E+01  -0.2000000E+01   0.0000000E+00   0.0000000E+00   0.0000000E+00   0.0000000E+00
   0.9058865E+01   0.6239950E+01  -0.2000000E+01   0.0000000E+00   0.0000000E+00   0.0000000E+00   0.0000000E+00
   0.9058865E+01   0.6239950E+01   0.0000000E+00   0.0000000E+00   0.0000000E+00   0.0000000E+00   0.0000000E+00
   0.9562280E+01   0.5437168E+01   0.0000000E+00   0.0000000E+00   0.0000000E+00   0.0000000E+00   0.0000000E+00
   0.9058865E+01   0.6239950E+01  -0.1000000E+01   0.0000000E+00   0.0000000E+00   0.0000000E+00   0.0000000E+00
   0.9562280E+01   0.5437168E+01  -0.1000000E+01   0.0000000E+00   0.0000000E+00   0.0000000E+00   0.0000000E+00
   0.9058865E+01   0.6239950E+01  -0.2000000E+01   0.0000000E+00   0.0000000E+00   0.0000000E+00   0.0000000E+00
   0.9562280E+01   0.5437168E+01  -0.2000000E+01   0.0000000E+00   0.0000000E+00   0.0000000E+00   0.0000000E+00
   0.9562280E+01   0.5437168E+01   0.0000000E+00   0.0000000E+00   0.0000000E+00   0.0000000E+00   0.0000000E+00
   0.9994739E+01   0.4594039E+01   0.0000000E+00   0.0000000E+00   0.0000000E+00   0.0000000E+00   0.0000000E+00
   0.9562280E+01   0.5437168E+01  -0.1000000E+01   0.0000000E+00   0.0000000E+00   0.0000000E+00   0.0000000E+00
   0.9994739E+01   0.4594039E+01  -0.1000000E+01   0.0000000E+00   0.0000000E+00   0.0000000E+00   0.0000000E+00
   0.9562280E+01   0.5437168E+01  -0.2000000E+01   0.0000000E+00   0.0000000E+00   0.0000000E+00   0.0000000E+00
   0.9994739E+01   0.4594039E+01  -0.2000000E+01   0.0000000E+00   0.0000000E+00   0.0000000E+00   0.0000000E+00
   0.9994739E+01   0.4594039E+01   0.0000000E+00   0.0000000E+00   0.0000000E+00   0.0000000E+00   0.0000000E+00
   0.1035303E+02   0.3716820E+01   0.0000000E+00   0.0000000E+00   0.0000000E+00   0.0000000E+00   0.0000000E+00
   0.9994739E+01   0.4594039E+01  -0.1000000E+01   0.0000000E+00   0.0000000E+00   0.0000000E+00   0.0000000E+00
   0.1035303E+02   0.3716820E+01  -0.1000000E+01   0.0000000E+00   0.0000000E+00   0.0000000E+00   0.0000000E+00
   0.9994739E+01   0.4594039E+01  -0.2000000E+01   0.0000000E+00   0.0000000E+00   0.0000000E+00   0.0000000E+00
   0.1035303E+02   0.3716820E+01  -0.2000000E+01   0.0000000E+00   0.0000000E+00   0.0000000E+00   0.0000000E+00
   0.1035303E+02   0.3716820E+01   0.0000000E+00   0.0000000E+00   0.0000000E+00   0.0000000E+00   0.0000000E+00
   0.1063450E+02   0.2812021E+01   0.0000000E+00   0.0000000E+00   0.0000000E+00   0.0000000E+00   0.0000000E+00
   0.1035303E+02   0.3716820E+01  -0.1000000E+01   0.0000000E+00   0.0000000E+00   0.0000000E+00   0.0000000E+00
   0.1063450E+02   0.2812021E+01  -0.1000000E+01   0.0000000E+00   0.0000000E+00   0.0000000E+00   0.0000000E+00
   0.1035303E+02   0.3716820E+01  -0.2000000E+01   0.0000000E+00   0.0000000E+00   0.0000000E+00   0.0000000E+00
   0.1063450E+02   0.2812021E+01  -0.2000000E+01   0.0000000E+00   0.0000000E+00   0.0000000E+00   0.0000000E+00
   0.1063450E+02   0.2812021E+01   0.0000000E+00   0.0000000E+00   0.0000000E+00   0.0000000E+00   0.0000000E+00
   0.1083705E+02   0.1886354E+01   0.0000000E+00   0.0000000E+00   0.0000000E+00   0.0000000E+00   0.0000000E+00
   0.1063450E+02   0.2812021E+01  -0.1000000E+01   0.0000000E+00   0.0000000E+00   0.0000000E+00   0.0000000E+00
   0.1083705E+02   0.1886354E+01  -0.1000000E+01   0.0000000E+00   0.0000000E+00   0.0000000E+00   0.0000000E+00
   0.1063450E+02   0.2812021E+01  -0.2000000E+01   0.0000000E+00   0.0000000E+00   0.0000000E+00   0.0000000E+00
   0.1083705E+02   0.1886354E+01  -0.2000000E+01   0.0000000E+00   0.0000000E+00   0.0000000E+00   0.0000000E+00
   0.1083705E+02   0.1886354E+01   0.0000000E+00   0.0000000E+00   0.0000000E+00   0.0000000E+00   0.0000000E+00
   0.1096435E+02   0.8849261E+00   0.0000000E+00   0.0000000E+00   0.0000000E+00   0.0000000E+00   0.0000000E+00
   0.1083705E+02   0.1886354E+01  -0.1000000E+01   0.0000000E+00   0.0000000E+00   0.0000000E+00   0.0000000E+00
   0.1096435E+02   0.8849261E+00  -0.1000000E+01   0.0000000E+00   0.0000000E+00   0.0000000E+00   0.0000000E+00
   0.1083705E+02   0.1886354E+01  -0.2000000E+01   0.0000000E+00   0.0000000E+00   0.0000000E+00   0.0000000E+00
   0.1096435E+02   0.8849261E+00  -0.2000000E+01   0.0000000E+00   0.0000000E+00   0.0000000E+00   0.0000000E+00
   0.1096435E+02   0.8849260E+00   0.0000000E+00   0.0000000E+00   0.0000000E+00   0.0000000E+00   0.0000000E+00
   0.1100000E+02   0.0000000E+00   0.0000000E+00   0.0000000E+00   0.0000000E+00   0.0000000E+00   0.0000000E+00
   0.1096435E+02   0.8849260E+00  -0.1000000E+01   0.0000000E+00   0.0000000E+00   0.0000000E+00   0.0000000E+00
   0.1100000E+02   0.0000000E+00  -0.1000000E+01   0.0000000E+00   0.0000000E+00   0.0000000E+00   0.0000000E+00
   0.1096435E+02   0.8849260E+00  -0.2000000E+01   0.0000000E+00   0.0000000E+00   0.0000000E+00   0.0000000E+00
   0.1100000E+02   0.0000000E+00  -0.2000000E+01   0.0000000E+00   0.0000000E+00   0.0000000E+00   0.0000000E+00
  -0.1100000E+02   0.0000000E+00  -0.2000000E+01   0.0000000E+00   0.0000000E+00   0.0000000E+00   0.0000000E+00
  -0.1095118E+02   0.1035191E+01  -0.2000000E+01   0.0000000E+00   0.0000000E+00   0.0000000E+00   0.0000000E+00
  -0.1000000E+02   0.0000000E+00  -0.2166667E+01   0.0000000E+00   0.0000000E+00   0.0000000E+00   0.0000000E+00
  -0.9955620E+01   0.9410830E+00  -0.2166667E+01   0.0000000E+00   0.0000000E+00   0.0000000E+00   0.0000000E+00
  -0.9000000E+01   0.0000000E+00  -0.2333333E+01   0.0000000E+00   0.0000000E+00   0.0000000E+00   0.0000000E+00
  -0.8960058E+01   0.8469750E+00  -0.2333333E+01   0.0000000E+00   0.0000000E+00   0.0000000E+00   0.0000000E+00
  -0.8000000E+01   0.0000000E+00  -0.2500000E+01   0.0000000E+00   0.0000000E+00   0.0000000E+00   0.0000000E+00
  -0.7964496E+01   0.7528670E+00  -0.2500000E+01   0.0000000E+00   0.0000000E+00   0.0000000E+00   0.0000000E+00
  -0.8000000E+01   0.0000000E+00  -0.2500000E+01   0.0000000E+00   0.0000000E+00   0.0000000E+00   0.0000000E+00
  -0.7964496E+01   0.7528670E+00  -0.2500000E+01   0.0000000E+00   0.0000000E+00   0.0000000E+00   0.0000000E+00
  -0.7000000E+01   0.0000000E+00  -0.2666667E+01   0.0000000E+00   0.0000000E+00   0.0000000E+00   0.0000000E+00
  -0.6968934E+01   0.6587586E+00  -0.2666667E+01   0.0000000E+00   0.0000000E+00   0.0000000E+00   0.0000000E+00
  -0.6000000E+01   0.0000000E+00  -0.2833333E+01   0.0000000E+00   0.0000000E+00   0.0000000E+00   0.0000000E+00
  -0.5973372E+01   0.5646504E+00  -0.2833333E+01   0.0000000E+00   0.0000000E+00   0.0000000E+00   0.0000000E+00
  -0.5000000E+01   0.0000000E+00  -0.3000000E+01   0.0000000E+00   0.0000000E+00   0.0000000E+00   0.0000000E+00
  -0.4977810E+01   0.4705420E+00  -0.3000000E+01   0.0000000E+00   0.0000000E+00   0.0000000E+00   0.0000000E+00
  -0.1095118E+02   0.1035191E+01  -0.2000000E+01   0.0000000E+00   0.0000000E+00   0.0000000E+00   0.0000000E+00
  -0.1081471E+02   0.2010478E+01  -0.2000000E+01   0.0000000E+00   0.0000000E+00   0.0000000E+00   0.0000000E+00
  -0.9955620E+01   0.9410830E+00  -0.2166667E+01   0.0000000E+00   0.0000000E+00   0.0000000E+00   0.0000000E+00
  -0.9831555E+01   0.1827707E+01  -0.2166667E+01   0.0000000E+00   0.0000000E+00   0.0000000E+00   0.0000000E+00
  -0.8960058E+01   0.8469750E+00  -0.2333333E+01   0.0000000E+00   0.0000000E+00   0.0000000E+00   0.0000000E+00
  -0.8848400E+01   0.1644937E+01  -0.2333333E+01   0.0000000E+00   0.0000000E+00   0.0000000E+00   0.0000000E+00
  -0.7964496E+01   0.7528670E+00  -0.2500000E+01   0.0000000E+00   0.0000000E+00   0.0000000E+00   0.0000000E+00
  -0.7865244E+01   0.1462166E+01  -0.2500000E+01   0.0000000E+00   0.0000000E+00   0.0000000E+00   0.0000000E+00
  -0.7964496E+01   0.7528670E+00  -0.2500000E+01   0.0000000E+00   0.0000000E+00   0.0000000E+00   0.0000000E+00
  -0.7865244E+01   0.1462166E+01  -0.2500000E+01   0.0000000E+00   0.0000000E+00   0.0000000E+00   0.0000000E+00
  -0.6968934E+01   0.6587586E+00  -0.2666667E+01   0.0000000E+00   0.0000000E+00   0.0000000E+00   0.0000000E+00
  -0.6882089E+01   0.1279395E+01  -0.2666667E+01   0.0000000E+00   0.0000000E+00   0.0000000E+00   0.0000000E+00
  -0.5973372E+01   0.5646504E+00  -0.2833333E+01   0.0000000E+00   0.0000000E+00   0.0000000E+00   0.0000000E+00
  -0.5898933E+01   0.1096625E+01  -0.2833333E+01   0.0000000E+00   0.0000000E+00   0.0000000E+00   0.0000000E+00
  -0.4977810E+01   0.4705420E+00  -0.3000000E+01   0.0000000E+00   0.0000000E+00   0.0000000E+00   0.0000000E+00
  -0.4915778E+01   0.9138540E+00  -0.3000000E+01   0.0000000E+00   0.0000000E+00   0.0000000E+00   0.0000000E+00
  -0.1081471E+02   0.2010478E+01  -0.2000000E+01   0.0000000E+00   0.0000000E+00   0.0000000E+00   0.0000000E+00
  -0.1059443E+02   0.2959419E+01  -0.2000000E+01   0.0000000E+00   0.0000000E+00   0.0000000E+00   0.0000000E+00
  -0.9831555E+01   0.1827707E+01  -0.2166667E+01   0.0000000E+00   0.0000000E+00   0.0000000E+00   0.0000000E+00
  -0.9631295E+01   0.2690381E+01  -0.2166667E+01   0.0000000E+00   0.0000000E+00   0.0000000E+00   0.0000000E+00
  -0.8848400E+01   0.1644937E+01  -0.2333333E+01   0.0000000E+00   0.0000000E+00   0.0000000E+00   0.0000000E+00
  -0.8668166E+01   0.2421342E+01  -0.2333333E+01   0.0000000E+00   0.0000000E+00   0.0000000E+00   0.0000000E+00
  -0.7865244E+01   0.1462166E+01  -0.2500000E+01   0.0000000E+00   0.0000000E+00   0.0000000E+00   0.0000000E+00
  -0.7705036E+01   0.2152304E+01  -0.2500000E+01   0.0000000E+00   0.0000000E+00   0.0000000E+00   0.0000000E+00
  -0.7865244E+01   0.1462166E+01  -0.2500000E+01   0.0000000E+00   0.0000000E+00   0.0000000E+00   0.0000000E+00
  -0.7705036E+01   0.2152304E+01  -0.2500000E+01   0.0000000E+00   0.0000000E+00   0.0000000E+00   0.0000000E+00
  -0.6882089E+01   0.1279395E+01  -0.2666667E+01   0.0000000E+00   0.0000000E+00   0.0000000E+00   0.0000000E+00
  -0.6741907E+01   0.1883266E+01  -0.2666667E+01   0.0000000E+00   0.0000000E+00   0.0000000E+00   0.0000000E+00
  -0.5898933E+01   0.1096625E+01  -0.2833333E+01   0.0000000E+00   0.0000000E+00   0.0000000E+00   0.0000000E+00
  -0.5778778E+01   0.1614228E+01  -0.2833333E+01   0.0000000E+00   0.0000000E+00   0.0000000E+00   0.0000000E+00
  -0.4915778E+01   0.9138540E+00  -0.3000000E+01   0.0000000E+00   0.0000000E+00   0.0000000E+00   0.0000000E+00
  -0.4815648E+01   0.1345190E+01  -0.3000000E+01   0.0000000E+00   0.0000000E+00   0.0000000E+00   0.0000000E+00